<?xml version="1.0" encoding="UTF-8"?>

<!-- generated on 2024-07-26 02:40:17 by Eclipse SUMO sumo Version 1.18.0
<configuration xmlns:xsi="http://www.w3.org/2001/XMLSchema-instance" xsi:noNamespaceSchemaLocation="http://sumo.dlr.de/xsd/sumoConfiguration.xsd">

    <input>
        <net-file value="../osm.net.xml"/>
        <route-files value="../flow.rou.xml"/>
        <additional-files value="../osm.poly.xml.gz,../parkings.add.xml,../parking.rerouter.add.xml,parking_config.add.xml"/>
    </input>

    <output>
        <emission-output value="output/emissions.xml"/>
        <summary-output value="output/summary.xml"/>
        <tripinfo-output value="output/tripinfos.xml"/>
        <vehroute-output value="output/vehroutes.xml"/>
        <stop-output value="output/stopinfo.xml"/>
        <statistic-output value="output/statistics.xml"/>
    </output>

    <processing>
        <ignore-route-errors value="true"/>
    </processing>

    <routing>
        <device.rerouting.adaptation-steps value="18"/>
        <device.rerouting.adaptation-interval value="10"/>
    </routing>

    <report>
        <verbose value="true"/>
        <duration-log.statistics value="true"/>
        <no-step-log value="true"/>
    </report>

    <gui_only>
        <gui-settings-file value="../sim.view.xml"/>
    </gui_only>

</configuration>
-->

<tripinfos xmlns:xsi="http://www.w3.org/2001/XMLSchema-instance" xsi:noNamespaceSchemaLocation="http://sumo.dlr.de/xsd/tripinfo_file.xsd">
    <tripinfo id="flow_10152091453.11" depart="344.00" departLane="429356220#0_0" departPos="5.10" departSpeed="0.00" departDelay="320.00" arrival="801.00" arrivalLane="34474265#5_0" arrivalPos="124.62" arrivalSpeed="0.00" duration="457.00" routeLength="1478.39" waitingTime="301.00" waitingCount="1" stopTime="0.00" timeLoss="333.44" rerouteNo="1" devices="vehroute_flow_10152091453.11 tripinfo_flow_10152091453.11 routing_flow_10152091453.11 emissions_flow_10152091453.11" vType="car" speedFactor="1.08" vaporized="teleport">
        <emissions CO_abs="57216.178317" CO2_abs="1250222.589031" HC_abs="288.905588" PMx_abs="26.634669" NOx_abs="541.514141" fuel_abs="398782.335032" electricity_abs="0"/>
    </tripinfo>
    <tripinfo id="flow_10152065052.34" depart="224.00" departLane="153950038#0_0" departPos="5.10" departSpeed="0.00" departDelay="154.00" arrival="878.00" arrivalLane="25171322#8_0" arrivalPos="131.79" arrivalSpeed="0.00" duration="654.00" routeLength="2127.79" waitingTime="443.00" waitingCount="10" stopTime="0.00" timeLoss="501.30" rerouteNo="1" devices="vehroute_flow_10152065052.34 tripinfo_flow_10152065052.34 routing_flow_10152065052.34 emissions_flow_10152065052.34" vType="car" speedFactor="1.11" vaporized="teleport">
        <emissions CO_abs="84741.774623" CO2_abs="1844262.940968" HC_abs="426.785393" PMx_abs="40.398232" NOx_abs="804.851082" fuel_abs="588261.746688" electricity_abs="0"/>
    </tripinfo>
    <tripinfo id="flow_10152091453.12" depart="357.00" departLane="429356220#0_0" departPos="5.10" departSpeed="0.00" departDelay="331.00" arrival="1105.00" arrivalLane="34474265#5_0" arrivalPos="124.62" arrivalSpeed="0.00" duration="748.00" routeLength="1478.39" waitingTime="595.00" waitingCount="4" stopTime="0.00" timeLoss="607.81" rerouteNo="1" devices="vehroute_flow_10152091453.12 tripinfo_flow_10152091453.12 routing_flow_10152091453.12 emissions_flow_10152091453.12" vType="car" speedFactor="0.95" vaporized="teleport">
        <emissions CO_abs="104473.680824" CO2_abs="1973223.548417" HC_abs="521.094450" PMx_abs="44.374521" NOx_abs="870.444536" fuel_abs="629403.693241" electricity_abs="0"/>
    </tripinfo>
    <tripinfo id="flow_10152065052.25" depart="164.00" departLane="153950038#0_0" departPos="5.10" departSpeed="0.00" departDelay="112.00" arrival="1182.00" arrivalLane="25171322#8_0" arrivalPos="131.79" arrivalSpeed="0.00" duration="1018.00" routeLength="2127.79" waitingTime="811.00" waitingCount="12" stopTime="0.00" timeLoss="852.70" rerouteNo="1" devices="vehroute_flow_10152065052.25 tripinfo_flow_10152065052.25 routing_flow_10152065052.25 emissions_flow_10152065052.25" vType="car" speedFactor="1.02" vaporized="teleport">
        <emissions CO_abs="144121.449064" CO2_abs="2781232.126655" HC_abs="719.326685" PMx_abs="63.594234" NOx_abs="1232.346203" fuel_abs="887132.819920" electricity_abs="0"/>
    </tripinfo>
    <tripinfo id="flow_3891079338.21" depart="769.00" departLane="24892132#0_0" departPos="5.10" departSpeed="0.00" departDelay="725.00" arrival="1393.00" arrivalLane="-27774100#4_0" arrivalPos="237.63" arrivalSpeed="0.00" duration="624.00" routeLength="1951.40" waitingTime="362.00" waitingCount="10" stopTime="0.00" timeLoss="419.75" rerouteNo="2" devices="vehroute_flow_3891079338.21 tripinfo_flow_3891079338.21 routing_flow_3891079338.21 emissions_flow_3891079338.21" vType="car" speedFactor="0.94" vaporized="teleport">
        <emissions CO_abs="73183.071745" CO2_abs="1555147.518396" HC_abs="369.181744" PMx_abs="33.419543" NOx_abs="678.530376" fuel_abs="496044.797589" electricity_abs="0"/>
    </tripinfo>
    <tripinfo id="flow_10152091453.13" depart="369.00" departLane="429356220#0_0" departPos="5.10" departSpeed="0.00" departDelay="341.00" arrival="1409.00" arrivalLane="34474265#5_0" arrivalPos="124.62" arrivalSpeed="0.00" duration="1040.00" routeLength="1478.39" waitingTime="883.00" waitingCount="5" stopTime="0.00" timeLoss="900.76" rerouteNo="1" devices="vehroute_flow_10152091453.13 tripinfo_flow_10152091453.13 routing_flow_10152091453.13 emissions_flow_10152091453.13" vType="car" speedFactor="0.96" vaporized="teleport">
        <emissions CO_abs="152890.790314" CO2_abs="2753257.065695" HC_abs="759.861629" PMx_abs="64.026437" NOx_abs="1228.919802" fuel_abs="878214.890513" electricity_abs="0"/>
    </tripinfo>
    <tripinfo id="flow_10152065052.35" depart="229.00" departLane="153950038#0_0" departPos="5.10" departSpeed="0.00" departDelay="157.00" arrival="1486.00" arrivalLane="25171322#8_0" arrivalPos="131.79" arrivalSpeed="0.00" duration="1257.00" routeLength="2127.79" waitingTime="1036.00" waitingCount="15" stopTime="0.00" timeLoss="1101.03" rerouteNo="1" devices="vehroute_flow_10152065052.35 tripinfo_flow_10152065052.35 routing_flow_10152065052.35 emissions_flow_10152065052.35" vType="car" speedFactor="1.08" vaporized="teleport">
        <emissions CO_abs="183835.727172" CO2_abs="3437539.834442" HC_abs="915.818201" PMx_abs="80.523236" NOx_abs="1537.173325" fuel_abs="1096477.431655" electricity_abs="0"/>
    </tripinfo>
    <tripinfo id="flow_10152091453.14" depart="382.00" departLane="429356220#0_0" departPos="5.10" departSpeed="0.00" departDelay="352.00" arrival="1713.00" arrivalLane="34474265#5_0" arrivalPos="124.62" arrivalSpeed="0.00" duration="1331.00" routeLength="1478.39" waitingTime="1144.00" waitingCount="5" stopTime="0.00" timeLoss="1160.39" rerouteNo="1" devices="vehroute_flow_10152091453.14 tripinfo_flow_10152091453.14 routing_flow_10152091453.14 emissions_flow_10152091453.14" vType="car" speedFactor="0.78" vaporized="teleport">
        <emissions CO_abs="198391.442303" CO2_abs="3461313.861992" HC_abs="984.113415" PMx_abs="81.294194" NOx_abs="1552.252714" fuel_abs="1104068.907371" electricity_abs="0"/>
    </tripinfo>
    <tripinfo id="flow_10152065052.29" depart="184.00" departLane="153950038#0_0" departPos="5.10" departSpeed="0.00" departDelay="124.00" arrival="1790.00" arrivalLane="25171322#8_0" arrivalPos="131.79" arrivalSpeed="0.00" duration="1606.00" routeLength="2127.79" waitingTime="1377.00" waitingCount="16" stopTime="0.00" timeLoss="1440.06" rerouteNo="1" devices="vehroute_flow_10152065052.29 tripinfo_flow_10152065052.29 routing_flow_10152065052.29 emissions_flow_10152065052.29" vType="car" speedFactor="1.02" vaporized="teleport">
        <emissions CO_abs="240412.348839" CO2_abs="4336974.570717" HC_abs="1194.708274" PMx_abs="102.726300" NOx_abs="1947.600243" fuel_abs="1383375.680286" electricity_abs="0"/>
    </tripinfo>
    <tripinfo id="flow_11419078672.33" depart="581.00" departLane="38261112#2_0" departPos="5.10" departSpeed="0.00" departDelay="513.00" arrival="1803.00" arrivalLane="47372949#0_0" arrivalPos="144.56" arrivalSpeed="6.12" duration="1222.00" routeLength="4821.73" waitingTime="370.00" waitingCount="6" stopTime="0.00" timeLoss="425.89" rerouteNo="6" devices="vehroute_flow_11419078672.33 tripinfo_flow_11419078672.33 routing_flow_11419078672.33 emissions_flow_11419078672.33" vType="car" speedFactor="0.73" vaporized="">
        <emissions CO_abs="94190.063878" CO2_abs="2386306.307411" HC_abs="483.141230" PMx_abs="42.269605" NOx_abs="985.085765" fuel_abs="761157.793612" electricity_abs="0"/>
    </tripinfo>
    <tripinfo id="flow_3891079340.23" depart="282.00" departLane="90042841#0_0" departPos="5.10" departSpeed="0.00" departDelay="234.00" arrival="1842.00" arrivalLane="-27774100#4_0" arrivalPos="237.63" arrivalSpeed="0.00" duration="1560.00" routeLength="3000.44" waitingTime="983.00" waitingCount="24" stopTime="0.00" timeLoss="1097.92" rerouteNo="11" devices="vehroute_flow_3891079340.23 tripinfo_flow_3891079340.23 routing_flow_3891079340.23 emissions_flow_3891079340.23" vType="car" speedFactor="1.00" vaporized="teleport">
        <emissions CO_abs="181882.639052" CO2_abs="3570387.560828" HC_abs="909.677650" PMx_abs="80.838861" NOx_abs="1578.720856" fuel_abs="1138849.498168" electricity_abs="0"/>
    </tripinfo>
    <tripinfo id="flow_3891079338.19" depart="740.00" departLane="24892132#0_0" departPos="5.10" departSpeed="0.00" departDelay="700.00" arrival="1906.00" arrivalLane="-27774100#4_0" arrivalPos="237.63" arrivalSpeed="0.00" duration="1166.00" routeLength="1967.97" waitingTime="678.00" waitingCount="11" stopTime="0.00" timeLoss="743.44" rerouteNo="2" devices="vehroute_flow_3891079338.19 tripinfo_flow_3891079338.19 routing_flow_3891079338.19 emissions_flow_3891079338.19" vType="car" speedFactor="0.95" vaporized="teleport">
        <emissions CO_abs="126281.249454" CO2_abs="2408387.291874" HC_abs="630.981013" PMx_abs="54.651674" NOx_abs="1068.802568" fuel_abs="768207.364534" electricity_abs="0"/>
    </tripinfo>
    <tripinfo id="flow_9217552163.38" depart="584.00" departLane="216862003#0_0" departPos="5.10" departSpeed="0.00" departDelay="506.00" arrival="1915.00" arrivalLane="397118977#0_0" arrivalPos="181.24" arrivalSpeed="2.97" duration="1331.00" routeLength="4545.36" waitingTime="586.00" waitingCount="20" stopTime="0.00" timeLoss="738.26" rerouteNo="3" devices="vehroute_flow_9217552163.38 tripinfo_flow_9217552163.38 routing_flow_9217552163.38 emissions_flow_9217552163.38" vType="car" speedFactor="1.07" vaporized="">
        <emissions CO_abs="156559.798771" CO2_abs="3525132.314164" HC_abs="791.655338" PMx_abs="72.779485" NOx_abs="1516.851533" fuel_abs="1124407.334275" electricity_abs="0"/>
    </tripinfo>
    <tripinfo id="flow_3891079338.22" depart="782.00" departLane="24892132#0_0" departPos="5.10" departSpeed="0.00" departDelay="736.00" arrival="2001.00" arrivalLane="-27774100#4_0" arrivalPos="237.63" arrivalSpeed="0.00" duration="1219.00" routeLength="1951.40" waitingTime="953.00" waitingCount="11" stopTime="0.00" timeLoss="987.10" rerouteNo="2" devices="vehroute_flow_3891079338.22 tripinfo_flow_3891079338.22 routing_flow_3891079338.22 emissions_flow_3891079338.22" vType="car" speedFactor="0.82" vaporized="teleport">
        <emissions CO_abs="170015.295837" CO2_abs="3064577.719535" HC_abs="845.591690" PMx_abs="70.862367" NOx_abs="1368.081420" fuel_abs="977518.029323" electricity_abs="0"/>
    </tripinfo>
    <tripinfo id="flow_10785794283.8" depart="573.00" departLane="24892132#0_0" departPos="5.10" departSpeed="0.00" departDelay="555.00" arrival="2010.00" arrivalLane="232170520#0_0" arrivalPos="62.10" arrivalSpeed="8.30" duration="1437.00" routeLength="5531.97" waitingTime="496.00" waitingCount="14" stopTime="0.00" timeLoss="581.91" rerouteNo="8" devices="vehroute_flow_10785794283.8 tripinfo_flow_10785794283.8 routing_flow_10785794283.8 emissions_flow_10785794283.8" vType="car" speedFactor="1.00" vaporized="">
        <emissions CO_abs="105259.407052" CO2_abs="2715533.621786" HC_abs="538.419649" PMx_abs="51.084205" NOx_abs="1130.223992" fuel_abs="866166.793253" electricity_abs="0"/>
    </tripinfo>
    <tripinfo id="flow_10152091453.15" depart="392.00" departLane="429356220#0_0" departPos="5.10" departSpeed="0.00" departDelay="360.00" arrival="2017.00" arrivalLane="34474265#5_0" arrivalPos="124.62" arrivalSpeed="0.00" duration="1625.00" routeLength="1478.39" waitingTime="1437.00" waitingCount="6" stopTime="0.00" timeLoss="1478.35" rerouteNo="1" devices="vehroute_flow_10152091453.15 tripinfo_flow_10152091453.15 routing_flow_10152091453.15 emissions_flow_10152091453.15" vType="car" speedFactor="0.91" vaporized="teleport">
        <emissions CO_abs="247345.038269" CO2_abs="4253546.889687" HC_abs="1225.665231" PMx_abs="101.361251" NOx_abs="1916.993509" fuel_abs="1356771.189219" electricity_abs="0"/>
    </tripinfo>
    <tripinfo id="flow_10152065052.33" depart="219.00" departLane="153950038#0_0" departPos="5.10" departSpeed="0.00" departDelay="151.00" arrival="2094.00" arrivalLane="25171322#8_0" arrivalPos="131.79" arrivalSpeed="0.00" duration="1875.00" routeLength="2127.79" waitingTime="1632.00" waitingCount="15" stopTime="0.00" timeLoss="1693.84" rerouteNo="1" devices="vehroute_flow_10152065052.33 tripinfo_flow_10152065052.33 routing_flow_10152065052.33 emissions_flow_10152065052.33" vType="car" speedFactor="0.94" vaporized="teleport">
        <emissions CO_abs="282332.298360" CO2_abs="4980260.937566" HC_abs="1401.609920" PMx_abs="118.566064" NOx_abs="2241.237288" fuel_abs="1588569.753739" electricity_abs="0"/>
    </tripinfo>
    <tripinfo id="flow_9217552165.2" depart="84.00" departLane="41211484#1_0" departPos="5.10" departSpeed="0.00" departDelay="78.00" arrival="2217.00" arrivalLane="397118977#0_0" arrivalPos="181.24" arrivalSpeed="3.01" duration="2133.00" routeLength="4718.25" waitingTime="1295.00" waitingCount="25" stopTime="0.00" timeLoss="1504.53" rerouteNo="2" devices="vehroute_flow_9217552165.2 tripinfo_flow_9217552165.2 routing_flow_9217552165.2 emissions_flow_9217552165.2" vType="car" speedFactor="1.08" vaporized="">
        <emissions CO_abs="285008.715455" CO2_abs="5612820.119188" HC_abs="1426.313058" PMx_abs="124.084385" NOx_abs="2469.149156" fuel_abs="1790328.371382" electricity_abs="0"/>
    </tripinfo>
    <tripinfo id="flow_3891079338.24" depart="802.00" departLane="24892132#0_0" departPos="5.10" departSpeed="0.00" departDelay="752.00" arrival="2305.00" arrivalLane="-27774100#4_0" arrivalPos="237.63" arrivalSpeed="0.00" duration="1503.00" routeLength="1951.40" waitingTime="1248.00" waitingCount="11" stopTime="0.00" timeLoss="1296.31" rerouteNo="2" devices="vehroute_flow_3891079338.24 tripinfo_flow_3891079338.24 routing_flow_3891079338.24 emissions_flow_3891079338.24" vType="car" speedFactor="0.93" vaporized="teleport">
        <emissions CO_abs="218241.881533" CO2_abs="3843730.703064" HC_abs="1083.388318" PMx_abs="90.689136" NOx_abs="1726.581472" fuel_abs="1226048.097311" electricity_abs="0"/>
    </tripinfo>
    <tripinfo id="flow_4839983111.30" depart="538.00" departLane="38261112#2_0" departPos="5.10" departSpeed="0.00" departDelay="476.00" arrival="2308.00" arrivalLane="542662636_0" arrivalPos="72.80" arrivalSpeed="14.96" duration="1770.00" routeLength="4663.96" waitingTime="1059.00" waitingCount="12" stopTime="0.00" timeLoss="1165.33" rerouteNo="6" devices="vehroute_flow_4839983111.30 tripinfo_flow_4839983111.30 routing_flow_4839983111.30 emissions_flow_4839983111.30" vType="car" speedFactor="1.08" vaporized="">
        <emissions CO_abs="197157.344597" CO2_abs="4097310.340347" HC_abs="989.823895" PMx_abs="90.023827" NOx_abs="1791.378576" fuel_abs="1306918.283690" electricity_abs="0"/>
    </tripinfo>
    <tripinfo id="flow_10152091453.16" depart="402.00" departLane="429356220#0_0" departPos="5.10" departSpeed="0.00" departDelay="368.00" arrival="2321.00" arrivalLane="34474265#5_0" arrivalPos="124.62" arrivalSpeed="0.00" duration="1919.00" routeLength="1478.39" waitingTime="1735.00" waitingCount="7" stopTime="0.00" timeLoss="1770.11" rerouteNo="1" devices="vehroute_flow_10152091453.16 tripinfo_flow_10152091453.16 routing_flow_10152091453.16 emissions_flow_10152091453.16" vType="car" speedFactor="0.90" vaporized="teleport">
        <emissions CO_abs="295949.890923" CO2_abs="5024840.295255" HC_abs="1465.142818" PMx_abs="120.991371" NOx_abs="2272.211436" fuel_abs="1602794.792650" electricity_abs="0"/>
    </tripinfo>
    <tripinfo id="flow_698825602.2" depart="70.00" departLane="41211484#1_0" departPos="5.10" departSpeed="0.00" departDelay="64.00" arrival="2398.00" arrivalLane="47372949#0_0" arrivalPos="144.56" arrivalSpeed="6.11" duration="2328.00" routeLength="5308.85" waitingTime="1503.00" waitingCount="22" stopTime="0.00" timeLoss="1574.55" rerouteNo="7" devices="vehroute_flow_698825602.2 tripinfo_flow_698825602.2 routing_flow_698825602.2 emissions_flow_698825602.2" vType="car" speedFactor="0.73" vaporized="">
        <emissions CO_abs="302369.262017" CO2_abs="5826669.383772" HC_abs="1511.785942" PMx_abs="127.230989" NOx_abs="2555.871147" fuel_abs="1858546.124127" electricity_abs="0"/>
    </tripinfo>
    <tripinfo id="flow_10152065052.40" depart="263.00" departLane="153950038#0_0" departPos="5.10" departSpeed="0.00" departDelay="181.00" arrival="2398.00" arrivalLane="25171322#8_0" arrivalPos="131.79" arrivalSpeed="0.00" duration="2135.00" routeLength="2127.79" waitingTime="1900.00" waitingCount="16" stopTime="0.00" timeLoss="1981.58" rerouteNo="1" devices="vehroute_flow_10152065052.40 tripinfo_flow_10152065052.40 routing_flow_10152065052.40 emissions_flow_10152065052.40" vType="car" speedFactor="1.10" vaporized="teleport">
        <emissions CO_abs="326768.193067" CO2_abs="5690155.518771" HC_abs="1619.811246" PMx_abs="137.061911" NOx_abs="2571.033467" fuel_abs="1815007.805549" electricity_abs="0"/>
    </tripinfo>
    <tripinfo id="flow_316775573.0" depart="5.00" departLane="41211484#1_0" departPos="5.10" departSpeed="0.00" departDelay="3.00" arrival="2560.00" arrivalLane="-685270734_0" arrivalPos="41.77" arrivalSpeed="7.82" duration="2555.00" routeLength="5168.59" waitingTime="1578.00" waitingCount="25" stopTime="0.00" timeLoss="1687.02" rerouteNo="9" devices="vehroute_flow_316775573.0 tripinfo_flow_316775573.0 routing_flow_316775573.0 emissions_flow_316775573.0" vType="car" speedFactor="0.94" vaporized="">
        <emissions CO_abs="301470.679609" CO2_abs="5855445.306839" HC_abs="1508.098891" PMx_abs="131.529907" NOx_abs="2586.266498" fuel_abs="1867719.466269" electricity_abs="0"/>
    </tripinfo>
    <tripinfo id="flow_9217552165.0" depart="25.00" departLane="41211484#1_0" departPos="5.10" departSpeed="0.00" departDelay="23.00" arrival="2564.00" arrivalLane="397118977#0_0" arrivalPos="181.24" arrivalSpeed="2.36" duration="2539.00" routeLength="4718.25" waitingTime="1632.00" waitingCount="28" stopTime="0.00" timeLoss="1738.21" rerouteNo="2" devices="vehroute_flow_9217552165.0 tripinfo_flow_9217552165.0 routing_flow_9217552165.0 emissions_flow_9217552165.0" vType="car" speedFactor="0.85" vaporized="">
        <emissions CO_abs="346478.485119" CO2_abs="6553513.811738" HC_abs="1729.895615" PMx_abs="146.320392" NOx_abs="2893.753652" fuel_abs="2090389.904907" electricity_abs="0"/>
    </tripinfo>
    <tripinfo id="flow_207536847.6" depart="187.00" departLane="41211484#1_0" departPos="5.10" departSpeed="0.00" departDelay="173.00" arrival="2578.00" arrivalLane="542665948#0_0" arrivalPos="56.29" arrivalSpeed="13.80" duration="2391.00" routeLength="4765.27" waitingTime="1396.00" waitingCount="20" stopTime="0.00" timeLoss="1496.43" rerouteNo="9" devices="vehroute_flow_207536847.6 tripinfo_flow_207536847.6 routing_flow_207536847.6 emissions_flow_207536847.6" vType="car" speedFactor="0.99" vaporized="">
        <emissions CO_abs="267902.519274" CO2_abs="5175099.758900" HC_abs="1337.285873" PMx_abs="115.476835" NOx_abs="2277.792643" fuel_abs="1650710.446791" electricity_abs="0"/>
    </tripinfo>
    <tripinfo id="flow_207536847.3" depart="89.00" departLane="41211484#1_0" departPos="5.10" departSpeed="0.00" departDelay="81.00" arrival="2579.00" arrivalLane="542665948#0_1" arrivalPos="56.29" arrivalSpeed="13.87" duration="2490.00" routeLength="3975.78" waitingTime="1602.00" waitingCount="25" stopTime="0.00" timeLoss="1751.17" rerouteNo="4" devices="vehroute_flow_207536847.3 tripinfo_flow_207536847.3 routing_flow_207536847.3 emissions_flow_207536847.3" vType="car" speedFactor="1.00" vaporized="">
        <emissions CO_abs="302876.503980" CO2_abs="5646058.987878" HC_abs="1508.347179" PMx_abs="130.654387" NOx_abs="2515.370789" fuel_abs="1800934.622290" electricity_abs="0"/>
    </tripinfo>
    <tripinfo id="flow_10152091453.17" depart="412.00" departLane="429356220#0_0" departPos="5.10" departSpeed="0.00" departDelay="376.00" arrival="2625.00" arrivalLane="34474265#5_0" arrivalPos="124.62" arrivalSpeed="0.00" duration="2213.00" routeLength="1478.39" waitingTime="2033.00" waitingCount="8" stopTime="0.00" timeLoss="2070.35" rerouteNo="1" devices="vehroute_flow_10152091453.17 tripinfo_flow_10152091453.17 routing_flow_10152091453.17 emissions_flow_10152091453.17" vType="car" speedFactor="0.94" vaporized="teleport">
        <emissions CO_abs="344534.088216" CO2_abs="5782912.797169" HC_abs="1704.017183" PMx_abs="140.140079" NOx_abs="2620.086949" fuel_abs="1844601.940118" electricity_abs="0"/>
    </tripinfo>
    <tripinfo id="flow_4839983111.36" depart="612.00" departLane="38261112#2_0" departPos="5.10" departSpeed="0.00" departDelay="538.00" arrival="2642.00" arrivalLane="542662636_0" arrivalPos="72.80" arrivalSpeed="12.79" duration="2030.00" routeLength="4656.69" waitingTime="1273.00" waitingCount="12" stopTime="0.00" timeLoss="1355.11" rerouteNo="7" devices="vehroute_flow_4839983111.36 tripinfo_flow_4839983111.36 routing_flow_4839983111.36 emissions_flow_4839983111.36" vType="car" speedFactor="0.92" vaporized="">
        <emissions CO_abs="231115.608918" CO2_abs="4566505.700598" HC_abs="1158.196286" PMx_abs="100.566982" NOx_abs="2001.222366" fuel_abs="1456584.649059" electricity_abs="0"/>
    </tripinfo>
    <tripinfo id="flow_2711712831.28" depart="550.00" departLane="222427536#0_0" departPos="5.10" departSpeed="0.00" departDelay="492.00" arrival="2687.00" arrivalLane="22329473_0" arrivalPos="100.23" arrivalSpeed="8.62" duration="2137.00" routeLength="5328.43" waitingTime="1290.00" waitingCount="20" stopTime="0.00" timeLoss="1413.09" rerouteNo="15" devices="vehroute_flow_2711712831.28 tripinfo_flow_2711712831.28 routing_flow_2711712831.28 emissions_flow_2711712831.28" vType="car" speedFactor="1.03" vaporized="">
        <emissions CO_abs="241696.635451" CO2_abs="4925834.833908" HC_abs="1213.217947" PMx_abs="107.419568" NOx_abs="2152.961781" fuel_abs="1571196.423194" electricity_abs="0"/>
    </tripinfo>
    <tripinfo id="flow_10785794283.3" depart="77.00" departLane="24892132#0_0" departPos="5.10" departSpeed="0.00" departDelay="69.00" arrival="2699.00" arrivalLane="232170520#0_0" arrivalPos="62.10" arrivalSpeed="9.26" duration="2622.00" routeLength="6209.99" waitingTime="1673.00" waitingCount="26" stopTime="0.00" timeLoss="1855.60" rerouteNo="9" devices="vehroute_flow_10785794283.3 tripinfo_flow_10785794283.3 routing_flow_10785794283.3 emissions_flow_10785794283.3" vType="car" speedFactor="1.11" vaporized="">
        <emissions CO_abs="312085.290012" CO2_abs="6205589.420329" HC_abs="1561.789851" PMx_abs="137.536771" NOx_abs="2725.409197" fuel_abs="1979402.679570" electricity_abs="0"/>
    </tripinfo>
    <tripinfo id="flow_10152065052.32" depart="214.00" departLane="153950038#0_0" departPos="5.10" departSpeed="0.00" departDelay="148.00" arrival="2702.00" arrivalLane="25171322#8_0" arrivalPos="131.79" arrivalSpeed="0.00" duration="2488.00" routeLength="2127.79" waitingTime="2239.00" waitingCount="18" stopTime="0.00" timeLoss="2309.86" rerouteNo="1" devices="vehroute_flow_10152065052.32 tripinfo_flow_10152065052.32 routing_flow_10152065052.32 emissions_flow_10152065052.32" vType="car" speedFactor="0.95" vaporized="teleport">
        <emissions CO_abs="383506.565224" CO2_abs="6599978.962054" HC_abs="1900.120210" PMx_abs="159.425157" NOx_abs="2985.808559" fuel_abs="2105219.651573" electricity_abs="0"/>
    </tripinfo>
    <tripinfo id="flow_10785794283.13" depart="666.00" departLane="24892132#0_0" departPos="5.10" departSpeed="0.00" departDelay="638.00" arrival="2725.00" arrivalLane="232170520#0_0" arrivalPos="62.10" arrivalSpeed="7.58" duration="2059.00" routeLength="5830.93" waitingTime="1031.00" waitingCount="18" stopTime="0.00" timeLoss="1114.19" rerouteNo="9" devices="vehroute_flow_10785794283.13 tripinfo_flow_10785794283.13 routing_flow_10785794283.13 emissions_flow_10785794283.13" vType="car" speedFactor="0.91" vaporized="">
        <emissions CO_abs="199259.406593" CO2_abs="4318632.147842" HC_abs="1007.280044" PMx_abs="89.552434" NOx_abs="1857.898197" fuel_abs="1377514.073809" electricity_abs="0"/>
    </tripinfo>
    <tripinfo id="flow_2711712831.44" depart="734.00" departLane="222427536#0_0" departPos="5.10" departSpeed="0.00" departDelay="644.00" arrival="2764.00" arrivalLane="22329473_0" arrivalPos="100.23" arrivalSpeed="8.46" duration="2030.00" routeLength="5313.98" waitingTime="1072.00" waitingCount="23" stopTime="0.00" timeLoss="1186.55" rerouteNo="16" devices="vehroute_flow_2711712831.44 tripinfo_flow_2711712831.44 routing_flow_2711712831.44 emissions_flow_2711712831.44" vType="car" speedFactor="1.02" vaporized="">
        <emissions CO_abs="205183.383843" CO2_abs="4324013.860784" HC_abs="1031.800349" PMx_abs="92.206092" NOx_abs="1875.703776" fuel_abs="1379231.052899" electricity_abs="0"/>
    </tripinfo>
    <tripinfo id="flow_9217552163.44" depart="625.00" departLane="216862003#0_0" departPos="5.10" departSpeed="0.00" departDelay="535.00" arrival="2827.00" arrivalLane="397118977#0_0" arrivalPos="181.24" arrivalSpeed="2.96" duration="2202.00" routeLength="4540.32" waitingTime="1408.00" waitingCount="23" stopTime="0.00" timeLoss="1607.76" rerouteNo="3" devices="vehroute_flow_9217552163.44 tripinfo_flow_9217552163.44 routing_flow_9217552163.44 emissions_flow_9217552163.44" vType="car" speedFactor="1.07" vaporized="">
        <emissions CO_abs="297248.802589" CO2_abs="5743499.581719" HC_abs="1485.796261" PMx_abs="128.214865" NOx_abs="2535.545029" fuel_abs="1832013.545593" electricity_abs="0"/>
    </tripinfo>
    <tripinfo id="flow_10152091453.18" depart="477.00" departLane="429356220#0_0" departPos="5.10" departSpeed="0.00" departDelay="439.00" arrival="2929.00" arrivalLane="34474265#5_0" arrivalPos="124.62" arrivalSpeed="0.00" duration="2452.00" routeLength="1478.39" waitingTime="2270.00" waitingCount="11" stopTime="0.00" timeLoss="2298.05" rerouteNo="1" devices="vehroute_flow_10152091453.18 tripinfo_flow_10152091453.18 routing_flow_10152091453.18 emissions_flow_10152091453.18" vType="car" speedFactor="0.87" vaporized="teleport">
        <emissions CO_abs="384551.730350" CO2_abs="6458593.572088" HC_abs="1902.288446" PMx_abs="156.884552" NOx_abs="2928.818803" fuel_abs="2060126.335675" electricity_abs="0"/>
    </tripinfo>
    <tripinfo id="flow_698825602.7" depart="703.00" departLane="41211484#1_0" departPos="5.10" departSpeed="0.00" departDelay="687.00" arrival="2949.00" arrivalLane="47372949#0_0" arrivalPos="144.56" arrivalSpeed="9.65" duration="2246.00" routeLength="4840.13" waitingTime="1266.00" waitingCount="17" stopTime="0.00" timeLoss="1407.54" rerouteNo="7" devices="vehroute_flow_698825602.7 tripinfo_flow_698825602.7 routing_flow_698825602.7 emissions_flow_698825602.7" vType="car" speedFactor="1.16" vaporized="">
        <emissions CO_abs="248927.585268" CO2_abs="4925931.230106" HC_abs="1246.219230" PMx_abs="109.612668" NOx_abs="2167.162982" fuel_abs="1571229.202621" electricity_abs="0"/>
    </tripinfo>
    <tripinfo id="flow_4839983111.20" depart="388.00" departLane="38261112#2_0" departPos="5.10" departSpeed="0.00" departDelay="346.00" arrival="2950.00" arrivalLane="542662636_0" arrivalPos="72.80" arrivalSpeed="13.54" duration="2562.00" routeLength="5596.90" waitingTime="1699.00" waitingCount="19" stopTime="0.00" timeLoss="1813.56" rerouteNo="8" devices="vehroute_flow_4839983111.20 tripinfo_flow_4839983111.20 routing_flow_4839983111.20 emissions_flow_4839983111.20" vType="car" speedFactor="0.97" vaporized="">
        <emissions CO_abs="308365.953441" CO2_abs="6054756.330074" HC_abs="1543.086131" PMx_abs="134.394818" NOx_abs="2660.187901" fuel_abs="1931293.833611" electricity_abs="0"/>
    </tripinfo>
    <tripinfo id="flow_10152065052.45" depart="283.00" departLane="153950038#0_0" departPos="5.10" departSpeed="0.00" departDelay="191.00" arrival="3006.00" arrivalLane="25171322#8_0" arrivalPos="131.79" arrivalSpeed="0.00" duration="2723.00" routeLength="2127.79" waitingTime="2481.00" waitingCount="19" stopTime="0.00" timeLoss="2565.55" rerouteNo="1" devices="vehroute_flow_10152065052.45 tripinfo_flow_10152065052.45 routing_flow_10152065052.45 emissions_flow_10152065052.45" vType="car" speedFactor="1.08" vaporized="teleport">
        <emissions CO_abs="423178.914705" CO2_abs="7217283.452491" HC_abs="2094.001073" PMx_abs="175.212001" NOx_abs="3269.860281" fuel_abs="2302124.860897" electricity_abs="0"/>
    </tripinfo>
    <tripinfo id="flow_316775573.12" depart="904.00" departLane="41211484#1_0" departPos="5.10" departSpeed="0.00" departDelay="878.00" arrival="3114.00" arrivalLane="-685270734_0" arrivalPos="41.77" arrivalSpeed="8.80" duration="2210.00" routeLength="5153.15" waitingTime="1234.00" waitingCount="20" stopTime="0.00" timeLoss="1365.44" rerouteNo="9" devices="vehroute_flow_316775573.12 tripinfo_flow_316775573.12 routing_flow_316775573.12 emissions_flow_316775573.12" vType="car" speedFactor="1.06" vaporized="">