<?xml version="1.0" encoding="UTF-8"?>

<!-- generated on 2024-07-26 02:34:51 by Eclipse SUMO sumo Version 1.18.0
<configuration xmlns:xsi="http://www.w3.org/2001/XMLSchema-instance" xsi:noNamespaceSchemaLocation="http://sumo.dlr.de/xsd/sumoConfiguration.xsd">

    <input>
        <net-file value="../osm.net.xml"/>
        <route-files value="../flow.rou.xml"/>
        <additional-files value="../osm.poly.xml.gz,../parkings.add.xml,../parking.rerouter.add.xml,parking_config.add.xml"/>
    </input>

    <output>
        <emission-output value="output/emissions.xml"/>
        <summary-output value="output/summary.xml"/>
        <tripinfo-output value="output/tripinfos.xml"/>
        <vehroute-output value="output/vehroutes.xml"/>
        <stop-output value="output/stopinfo.xml"/>
        <statistic-output value="output/statistics.xml"/>
    </output>

    <processing>
        <ignore-route-errors value="true"/>
    </processing>

    <routing>
        <device.rerouting.adaptation-steps value="18"/>
        <device.rerouting.adaptation-interval value="10"/>
    </routing>

    <report>
        <verbose value="true"/>
        <duration-log.statistics value="true"/>
        <no-step-log value="true"/>
    </report>

    <gui_only>
        <gui-settings-file value="../sim.view.xml"/>
    </gui_only>

</configuration>
-->

<tripinfos xmlns:xsi="http://www.w3.org/2001/XMLSchema-instance" xsi:noNamespaceSchemaLocation="http://sumo.dlr.de/xsd/tripinfo_file.xsd">
    <tripinfo id="flow_10152091453.11" depart="344.00" departLane="429356220#0_0" departPos="5.10" departSpeed="0.00" departDelay="320.00" arrival="816.00" arrivalLane="34474265#5_0" arrivalPos="124.62" arrivalSpeed="0.00" duration="472.00" routeLength="1478.39" waitingTime="301.00" waitingCount="1" stopTime="0.00" timeLoss="348.45" rerouteNo="1" devices="vehroute_flow_10152091453.11 tripinfo_flow_10152091453.11 routing_flow_10152091453.11 emissions_flow_10152091453.11" vType="car" speedFactor="1.08" vaporized="teleport">
        <emissions CO_abs="58123.408748" CO2_abs="1251424.796305" HC_abs="293.038365" PMx_abs="26.723640" NOx_abs="542.987760" fuel_abs="399166.225350" electricity_abs="0"/>
    </tripinfo>
    <tripinfo id="flow_10152065052.34" depart="224.00" departLane="153950038#0_0" departPos="5.10" departSpeed="0.00" departDelay="154.00" arrival="919.00" arrivalLane="25171322#8_0" arrivalPos="131.79" arrivalSpeed="0.00" duration="695.00" routeLength="2127.79" waitingTime="477.00" waitingCount="13" stopTime="0.00" timeLoss="541.75" rerouteNo="1" devices="vehroute_flow_10152065052.34 tripinfo_flow_10152065052.34 routing_flow_10152065052.34 emissions_flow_10152065052.34" vType="car" speedFactor="1.11" vaporized="teleport">
        <emissions CO_abs="91790.043616" CO2_abs="1991438.433831" HC_abs="462.797580" PMx_abs="44.240973" NOx_abs="874.030173" fuel_abs="635205.565646" electricity_abs="0"/>
    </tripinfo>
    <tripinfo id="flow_10152091453.12" depart="357.00" departLane="429356220#0_0" departPos="5.10" departSpeed="0.00" departDelay="331.00" arrival="1120.00" arrivalLane="34474265#5_0" arrivalPos="124.62" arrivalSpeed="0.00" duration="763.00" routeLength="1478.39" waitingTime="591.00" waitingCount="5" stopTime="0.00" timeLoss="622.74" rerouteNo="1" devices="vehroute_flow_10152091453.12 tripinfo_flow_10152091453.12 routing_flow_10152091453.12 emissions_flow_10152091453.12" vType="car" speedFactor="0.95" vaporized="teleport">
        <emissions CO_abs="105771.267302" CO2_abs="2010744.785886" HC_abs="528.132758" PMx_abs="45.556556" NOx_abs="890.467786" fuel_abs="641371.037139" electricity_abs="0"/>
    </tripinfo>
    <tripinfo id="flow_10152065052.24" depart="159.00" departLane="153950038#0_0" departPos="5.10" departSpeed="0.00" departDelay="109.00" arrival="1223.00" arrivalLane="25171322#8_0" arrivalPos="131.79" arrivalSpeed="0.00" duration="1064.00" routeLength="2127.79" waitingTime="848.00" waitingCount="13" stopTime="0.00" timeLoss="899.06" rerouteNo="1" devices="vehroute_flow_10152065052.24 tripinfo_flow_10152065052.24 routing_flow_10152065052.24 emissions_flow_10152065052.24" vType="car" speedFactor="1.03" vaporized="teleport">
        <emissions CO_abs="151854.964539" CO2_abs="2939817.949780" HC_abs="758.185402" PMx_abs="67.343244" NOx_abs="1304.013533" fuel_abs="937716.631137" electricity_abs="0"/>
    </tripinfo>
    <tripinfo id="flow_10152091453.13" depart="369.00" departLane="429356220#0_0" departPos="5.10" departSpeed="0.00" departDelay="341.00" arrival="1424.00" arrivalLane="34474265#5_0" arrivalPos="124.62" arrivalSpeed="0.00" duration="1055.00" routeLength="1478.39" waitingTime="895.00" waitingCount="6" stopTime="0.00" timeLoss="915.86" rerouteNo="1" devices="vehroute_flow_10152091453.13 tripinfo_flow_10152091453.13 routing_flow_10152091453.13 emissions_flow_10152091453.13" vType="car" speedFactor="0.96" vaporized="teleport">
        <emissions CO_abs="155166.623543" CO2_abs="2797031.210279" HC_abs="771.412627" PMx_abs="65.188975" NOx_abs="1249.716504" fuel_abs="892177.397710" electricity_abs="0"/>
    </tripinfo>
    <tripinfo id="flow_10152065052.26" depart="169.00" departLane="153950038#0_0" departPos="5.10" departSpeed="0.00" departDelay="115.00" arrival="1527.00" arrivalLane="25171322#8_0" arrivalPos="131.79" arrivalSpeed="0.00" duration="1358.00" routeLength="2127.79" waitingTime="1122.00" waitingCount="14" stopTime="0.00" timeLoss="1179.87" rerouteNo="1" devices="vehroute_flow_10152065052.26 tripinfo_flow_10152065052.26 routing_flow_10152065052.26 emissions_flow_10152065052.26" vType="car" speedFactor="0.95" vaporized="teleport">
        <emissions CO_abs="198120.293277" CO2_abs="3659019.051293" HC_abs="986.825322" PMx_abs="85.176701" NOx_abs="1633.478906" fuel_abs="1167125.271681" electricity_abs="0"/>
    </tripinfo>
    <tripinfo id="flow_4839983111.20" depart="388.00" departLane="38261112#2_0" departPos="5.10" departSpeed="0.00" departDelay="346.00" arrival="1580.00" arrivalLane="542662636_0" arrivalPos="72.80" arrivalSpeed="13.54" duration="1192.00" routeLength="4662.72" waitingTime="512.00" waitingCount="13" stopTime="0.00" timeLoss="618.56" rerouteNo="6" devices="vehroute_flow_4839983111.20 tripinfo_flow_4839983111.20 routing_flow_4839983111.20 emissions_flow_4839983111.20" vType="car" speedFactor="0.97" vaporized="">
        <emissions CO_abs="108083.614989" CO2_abs="2639353.735061" HC_abs="552.185067" PMx_abs="52.654984" NOx_abs="1120.682483" fuel_abs="841868.259639" electricity_abs="0"/>
    </tripinfo>
    <tripinfo id="flow_3891079338.16" depart="702.00" departLane="24892132#0_0" departPos="5.10" departSpeed="0.00" departDelay="668.00" arrival="1582.00" arrivalLane="-27774100#4_0" arrivalPos="237.63" arrivalSpeed="0.00" duration="880.00" routeLength="1951.40" waitingTime="621.00" waitingCount="9" stopTime="0.00" timeLoss="689.25" rerouteNo="2" devices="vehroute_flow_3891079338.16 tripinfo_flow_3891079338.16 routing_flow_3891079338.16 emissions_flow_3891079338.16" vType="car" speedFactor="1.03" vaporized="teleport">
        <emissions CO_abs="116370.634813" CO2_abs="2242298.008573" HC_abs="581.359378" PMx_abs="50.676467" NOx_abs="993.288066" fuel_abs="715229.002894" electricity_abs="0"/>
    </tripinfo>
    <tripinfo id="flow_10152091453.16" depart="402.00" departLane="429356220#0_0" departPos="5.10" departSpeed="0.00" departDelay="368.00" arrival="1728.00" arrivalLane="34474265#5_0" arrivalPos="124.62" arrivalSpeed="0.00" duration="1326.00" routeLength="1478.39" waitingTime="1136.00" waitingCount="9" stopTime="0.00" timeLoss="1177.82" rerouteNo="1" devices="vehroute_flow_10152091453.16 tripinfo_flow_10152091453.16 routing_flow_10152091453.16 emissions_flow_10152091453.16" vType="car" speedFactor="0.90" vaporized="teleport">
        <emissions CO_abs="198469.894106" CO2_abs="3514803.995169" HC_abs="985.942009" PMx_abs="83.260222" NOx_abs="1581.135775" fuel_abs="1121128.140391" electricity_abs="0"/>
    </tripinfo>
    <tripinfo id="flow_3891079338.13" depart="661.00" departLane="24892132#0_0" departPos="5.10" departSpeed="0.00" departDelay="633.00" arrival="1789.00" arrivalLane="-27774100#4_0" arrivalPos="237.63" arrivalSpeed="0.00" duration="1128.00" routeLength="1967.97" waitingTime="655.00" waitingCount="10" stopTime="0.00" timeLoss="712.72" rerouteNo="2" devices="vehroute_flow_3891079338.13 tripinfo_flow_3891079338.13 routing_flow_3891079338.13 emissions_flow_3891079338.13" vType="car" speedFactor="0.99" vaporized="teleport">
        <emissions CO_abs="121518.888975" CO2_abs="2336337.903573" HC_abs="607.197806" PMx_abs="52.788963" NOx_abs="1034.722305" fuel_abs="745225.272656" electricity_abs="0"/>
    </tripinfo>
    <tripinfo id="flow_10152065052.25" depart="164.00" departLane="153950038#0_0" departPos="5.10" departSpeed="0.00" departDelay="112.00" arrival="1831.00" arrivalLane="25171322#8_0" arrivalPos="131.79" arrivalSpeed="0.00" duration="1667.00" routeLength="2127.79" waitingTime="1440.00" waitingCount="16" stopTime="0.00" timeLoss="1501.47" rerouteNo="1" devices="vehroute_flow_10152065052.25 tripinfo_flow_10152065052.25 routing_flow_10152065052.25 emissions_flow_10152065052.25" vType="car" speedFactor="1.02" vaporized="teleport">
        <emissions CO_abs="251030.223907" CO2_abs="4530444.296629" HC_abs="1247.827690" PMx_abs="107.651185" NOx_abs="2037.426453" fuel_abs="1445086.722838" electricity_abs="0"/>
    </tripinfo>
    <tripinfo id="flow_2711712831.24" depart="480.00" departLane="222427536#0_0" departPos="5.10" departSpeed="0.00" departDelay="430.00" arrival="1967.00" arrivalLane="22329473_0" arrivalPos="100.23" arrivalSpeed="8.86" duration="1487.00" routeLength="3274.71" waitingTime="845.00" waitingCount="17" stopTime="0.00" timeLoss="929.35" rerouteNo="11" devices="vehroute_flow_2711712831.24 tripinfo_flow_2711712831.24 routing_flow_2711712831.24 emissions_flow_2711712831.24" vType="car" speedFactor="1.06" vaporized="">
        <emissions CO_abs="158775.364858" CO2_abs="3210266.756035" HC_abs="796.404873" PMx_abs="71.711228" NOx_abs="1414.456409" fuel_abs="1023979.476270" electricity_abs="0"/>
    </tripinfo>
    <tripinfo id="flow_10152091453.14" depart="382.00" departLane="429356220#0_0" departPos="5.10" departSpeed="0.00" departDelay="352.00" arrival="2032.00" arrivalLane="34474265#5_0" arrivalPos="124.62" arrivalSpeed="0.00" duration="1650.00" routeLength="1478.39" waitingTime="1450.00" waitingCount="8" stopTime="0.00" timeLoss="1479.37" rerouteNo="1" devices="vehroute_flow_10152091453.14 tripinfo_flow_10152091453.14 routing_flow_10152091453.14 emissions_flow_10152091453.14" vType="car" speedFactor="0.78" vaporized="teleport">
        <emissions CO_abs="251230.173204" CO2_abs="4327309.600359" HC_abs="1245.095963" PMx_abs="103.119922" NOx_abs="1950.716301" fuel_abs="1380299.286644" electricity_abs="0"/>
    </tripinfo>
    <tripinfo id="flow_3891079338.14" depart="674.00" departLane="24892132#0_0" departPos="5.10" departSpeed="0.00" departDelay="644.00" arrival="2093.00" arrivalLane="-27774100#4_0" arrivalPos="237.63" arrivalSpeed="0.00" duration="1419.00" routeLength="1967.97" waitingTime="943.00" waitingCount="11" stopTime="0.00" timeLoss="998.02" rerouteNo="2" devices="vehroute_flow_3891079338.14 tripinfo_flow_3891079338.14 routing_flow_3891079338.14 emissions_flow_3891079338.14" vType="car" speedFactor="0.95" vaporized="teleport">
        <emissions CO_abs="168330.002285" CO2_abs="3064845.569633" HC_abs="837.706061" PMx_abs="71.167361" NOx_abs="1369.498569" fuel_abs="977602.049729" electricity_abs="0"/>
    </tripinfo>
    <tripinfo id="flow_316775573.1" depart="33.00" departLane="41211484#1_0" departPos="5.10" departSpeed="0.00" departDelay="29.00" arrival="2127.00" arrivalLane="-685270734_0" arrivalPos="41.77" arrivalSpeed="7.55" duration="2094.00" routeLength="5926.12" waitingTime="986.00" waitingCount="16" stopTime="0.00" timeLoss="1067.72" rerouteNo="9" devices="vehroute_flow_316775573.1 tripinfo_flow_316775573.1 routing_flow_316775573.1 emissions_flow_316775573.1" vType="car" speedFactor="0.91" vaporized="">
        <emissions CO_abs="205933.238720" CO2_abs="4471803.073695" HC_abs="1041.247581" PMx_abs="93.095561" NOx_abs="1927.602761" fuel_abs="1426370.222304" electricity_abs="0"/>
    </tripinfo>
    <tripinfo id="flow_10152065052.29" depart="184.00" departLane="153950038#0_0" departPos="5.10" departSpeed="0.00" departDelay="124.00" arrival="2135.00" arrivalLane="25171322#8_0" arrivalPos="131.79" arrivalSpeed="0.00" duration="1951.00" routeLength="2127.79" waitingTime="1709.00" waitingCount="18" stopTime="0.00" timeLoss="1785.30" rerouteNo="1" devices="vehroute_flow_10152065052.29 tripinfo_flow_10152065052.29 routing_flow_10152065052.29 emissions_flow_10152065052.29" vType="car" speedFactor="1.02" vaporized="teleport">
        <emissions CO_abs="297202.876955" CO2_abs="5269382.123137" HC_abs="1475.557369" PMx_abs="126.061735" NOx_abs="2375.922948" fuel_abs="1680789.858543" electricity_abs="0"/>
    </tripinfo>
    <tripinfo id="flow_3891079338.19" depart="740.00" departLane="24892132#0_0" departPos="5.10" departSpeed="0.00" departDelay="700.00" arrival="2192.00" arrivalLane="-27774100#4_0" arrivalPos="237.63" arrivalSpeed="0.00" duration="1452.00" routeLength="1951.40" waitingTime="1185.00" waitingCount="10" stopTime="0.00" timeLoss="1246.11" rerouteNo="2" devices="vehroute_flow_3891079338.19 tripinfo_flow_3891079338.19 routing_flow_3891079338.19 emissions_flow_3891079338.19" vType="car" speedFactor="0.95" vaporized="teleport">
        <emissions CO_abs="209157.058768" CO2_abs="3707415.962564" HC_abs="1038.898586" PMx_abs="87.875173" NOx_abs="1668.691045" fuel_abs="1182565.935733" electricity_abs="0"/>
    </tripinfo>
    <tripinfo id="flow_4839983111.28" depart="511.00" departLane="38261112#2_0" departPos="5.10" departSpeed="0.00" departDelay="453.00" arrival="2194.00" arrivalLane="542662636_0" arrivalPos="72.80" arrivalSpeed="14.63" duration="1683.00" routeLength="5595.58" waitingTime="864.00" waitingCount="13" stopTime="0.00" timeLoss="981.63" rerouteNo="8" devices="vehroute_flow_4839983111.28 tripinfo_flow_4839983111.28 routing_flow_4839983111.28 emissions_flow_4839983111.28" vType="car" speedFactor="1.05" vaporized="">
        <emissions CO_abs="168556.852630" CO2_abs="3799365.580683" HC_abs="852.713824" PMx_abs="78.918705" NOx_abs="1631.828244" fuel_abs="1211879.015969" electricity_abs="0"/>
    </tripinfo>
    <tripinfo id="flow_4839983111.29" depart="525.00" departLane="38261112#2_0" departPos="5.10" departSpeed="0.00" departDelay="465.00" arrival="2194.00" arrivalLane="542662636_1" arrivalPos="72.80" arrivalSpeed="14.75" duration="1669.00" routeLength="6294.87" waitingTime="752.00" waitingCount="15" stopTime="0.00" timeLoss="892.12" rerouteNo="12" devices="vehroute_flow_4839983111.29 tripinfo_flow_4839983111.29 routing_flow_4839983111.29 emissions_flow_4839983111.29" vType="car" speedFactor="1.06" vaporized="">
        <emissions CO_abs="156884.358935" CO2_abs="3793932.118642" HC_abs="798.338860" PMx_abs="76.035879" NOx_abs="1612.004081" fuel_abs="1210141.636448" electricity_abs="0"/>
    </tripinfo>
    <tripinfo id="flow_3695727291.23" depart="465.00" departLane="222427536#0_0" departPos="5.10" departSpeed="0.00" departDelay="417.00" arrival="2215.00" arrivalLane="-828798886_0" arrivalPos="57.99" arrivalSpeed="7.40" duration="1750.00" routeLength="3379.76" waitingTime="1131.00" waitingCount="16" stopTime="0.00" timeLoss="1194.11" rerouteNo="8" devices="vehroute_flow_3695727291.23 tripinfo_flow_3695727291.23 routing_flow_3695727291.23 emissions_flow_3695727291.23" vType="car" speedFactor="0.89" vaporized="">
        <emissions CO_abs="205404.956200" CO2_abs="3928361.042055" HC_abs="1026.732617" PMx_abs="88.180021" NOx_abs="1734.997267" fuel_abs="1253036.893324" electricity_abs="0"/>
    </tripinfo>
    <tripinfo id="flow_2634087847.47" depart="119.00" departLane="771368477#0_0" departPos="5.10" departSpeed="0.00" departDelay="23.00" arrival="2299.00" arrivalLane="542662641#1_2" arrivalPos="90.33" arrivalSpeed="0.00" duration="2180.00" routeLength="4222.89" waitingTime="1363.00" waitingCount="23" stopTime="0.00" timeLoss="1481.30" rerouteNo="6" devices="vehroute_flow_2634087847.47 tripinfo_flow_2634087847.47 routing_flow_2634087847.47 emissions_flow_2634087847.47" vType="car" speedFactor="0.96" vaporized="teleport">
        <emissions CO_abs="250761.908558" CO2_abs="4871073.819960" HC_abs="1254.891432" PMx_abs="109.867924" NOx_abs="2155.497459" fuel_abs="1553732.588450" electricity_abs="0"/>
    </tripinfo>
    <tripinfo id="flow_10152091453.15" depart="392.00" departLane="429356220#0_0" departPos="5.10" departSpeed="0.00" departDelay="360.00" arrival="2336.00" arrivalLane="34474265#5_0" arrivalPos="124.62" arrivalSpeed="0.00" duration="1944.00" routeLength="1478.39" waitingTime="1743.00" waitingCount="9" stopTime="0.00" timeLoss="1797.65" rerouteNo="1" devices="vehroute_flow_10152091453.15 tripinfo_flow_10152091453.15 routing_flow_10152091453.15 emissions_flow_10152091453.15" vType="car" speedFactor="0.91" vaporized="teleport">
        <emissions CO_abs="300098.901501" CO2_abs="5125937.016778" HC_abs="1486.456038" PMx_abs="123.507101" NOx_abs="2319.485153" fuel_abs="1635040.727991" electricity_abs="0"/>
    </tripinfo>
    <tripinfo id="flow_2634087847.25" depart="64.00" departLane="771368477#0_0" departPos="5.10" departSpeed="0.00" departDelay="12.00" arrival="2434.00" arrivalLane="542662641#1_0" arrivalPos="90.33" arrivalSpeed="11.47" duration="2370.00" routeLength="5093.20" waitingTime="1357.00" waitingCount="26" stopTime="0.00" timeLoss="1526.18" rerouteNo="7" devices="vehroute_flow_2634087847.25 tripinfo_flow_2634087847.25 routing_flow_2634087847.25 emissions_flow_2634087847.25" vType="car" speedFactor="1.11" vaporized="">
        <emissions CO_abs="254375.596411" CO2_abs="5188266.676104" HC_abs="1276.832130" PMx_abs="116.273237" NOx_abs="2287.634184" fuel_abs="1654900.713065" electricity_abs="0"/>
    </tripinfo>
    <tripinfo id="flow_10152065052.40" depart="263.00" departLane="153950038#0_0" departPos="5.10" departSpeed="0.00" departDelay="181.00" arrival="2439.00" arrivalLane="25171322#8_0" arrivalPos="131.79" arrivalSpeed="0.00" duration="2176.00" routeLength="2127.79" waitingTime="1926.00" waitingCount="19" stopTime="0.00" timeLoss="2022.19" rerouteNo="1" devices="vehroute_flow_10152065052.40 tripinfo_flow_10152065052.40 routing_flow_10152065052.40 emissions_flow_10152065052.40" vType="car" speedFactor="1.10" vaporized="teleport">
        <emissions CO_abs="333925.354282" CO2_abs="5855235.173984" HC_abs="1657.332136" PMx_abs="141.083751" NOx_abs="2647.672609" fuel_abs="1867662.310188" electricity_abs="0"/>
    </tripinfo>
    <tripinfo id="flow_3891079338.20" depart="756.00" departLane="24892132#0_0" departPos="5.10" departSpeed="0.00" departDelay="714.00" arrival="2504.00" arrivalLane="-27774100#4_0" arrivalPos="237.63" arrivalSpeed="0.00" duration="1748.00" routeLength="1951.40" waitingTime="1475.00" waitingCount="12" stopTime="0.00" timeLoss="1547.95" rerouteNo="2" devices="vehroute_flow_3891079338.20 tripinfo_flow_3891079338.20 routing_flow_3891079338.20 emissions_flow_3891079338.20" vType="car" speedFactor="1.03" vaporized="teleport">
        <emissions CO_abs="257734.074326" CO2_abs="4509258.411738" HC_abs="1278.559420" PMx_abs="108.119541" NOx_abs="2036.944061" fuel_abs="1438332.812356" electricity_abs="0"/>
    </tripinfo>
    <tripinfo id="flow_3695729527.24" depart="289.00" departLane="90042841#0_0" departPos="5.10" departSpeed="0.00" departDelay="239.00" arrival="2566.00" arrivalLane="-828798886_0" arrivalPos="57.99" arrivalSpeed="8.04" duration="2277.00" routeLength="5086.43" waitingTime="1438.00" waitingCount="27" stopTime="0.00" timeLoss="1585.47" rerouteNo="8" devices="vehroute_flow_3695729527.24 tripinfo_flow_3695729527.24 routing_flow_3695729527.24 emissions_flow_3695729527.24" vType="car" speedFactor="0.96" vaporized="">
        <emissions CO_abs="267358.341309" CO2_abs="5334822.427185" HC_abs="1340.412508" PMx_abs="119.261375" NOx_abs="2350.775363" fuel_abs="1701651.753812" electricity_abs="0"/>
    </tripinfo>
    <tripinfo id="flow_2634087847.42" depart="107.00" departLane="771368477#0_0" departPos="5.10" departSpeed="0.00" departDelay="21.00" arrival="2603.00" arrivalLane="542662641#1_0" arrivalPos="90.33" arrivalSpeed="0.01" duration="2496.00" routeLength="5036.10" waitingTime="1478.00" waitingCount="21" stopTime="0.00" timeLoss="1648.91" rerouteNo="7" devices="vehroute_flow_2634087847.42 tripinfo_flow_2634087847.42 routing_flow_2634087847.42 emissions_flow_2634087847.42" vType="car" speedFactor="1.05" vaporized="teleport">
        <emissions CO_abs="274868.488590" CO2_abs="5418760.493102" HC_abs="1376.596088" PMx_abs="122.515924" NOx_abs="2398.699662" fuel_abs="1728425.904073" electricity_abs="0"/>
    </tripinfo>
    <tripinfo id="flow_10152091453.17" depart="412.00" departLane="429356220#0_0" departPos="5.10" departSpeed="0.00" departDelay="376.00" arrival="2640.00" arrivalLane="34474265#5_0" arrivalPos="124.62" arrivalSpeed="0.00" duration="2228.00" routeLength="1478.39" waitingTime="2024.00" waitingCount="12" stopTime="0.00" timeLoss="2084.98" rerouteNo="1" devices="vehroute_flow_10152091453.17 tripinfo_flow_10152091453.17 routing_flow_10152091453.17 emissions_flow_10152091453.17" vType="car" speedFactor="0.94" vaporized="teleport">
        <emissions CO_abs="346897.635581" CO2_abs="5868639.499630" HC_abs="1716.885903" PMx_abs="142.271390" NOx_abs="2660.580805" fuel_abs="1871944.675852" electricity_abs="0"/>
    </tripinfo>
    <tripinfo id="flow_3891079340.25" depart="302.00" departLane="90042841#0_0" departPos="5.10" departSpeed="0.00" departDelay="250.00" arrival="2702.00" arrivalLane="-27774100#4_0" arrivalPos="237.63" arrivalSpeed="0.00" duration="2400.00" routeLength="3005.48" waitingTime="1821.00" waitingCount="23" stopTime="0.00" timeLoss="1949.05" rerouteNo="17" devices="vehroute_flow_3891079340.25 tripinfo_flow_3891079340.25 routing_flow_3891079340.25 emissions_flow_3891079340.25" vType="car" speedFactor="1.05" vaporized="teleport">
        <emissions CO_abs="320713.690405" CO2_abs="5783620.325714" HC_abs="1593.918338" PMx_abs="137.171813" NOx_abs="2598.977950" fuel_abs="1844815.743472" electricity_abs="0"/>
    </tripinfo>
    <tripinfo id="flow_10152065052.39" depart="260.00" departLane="153950038#0_0" departPos="5.10" departSpeed="0.00" departDelay="180.00" arrival="2743.00" arrivalLane="25171322#8_0" arrivalPos="131.79" arrivalSpeed="0.00" duration="2483.00" routeLength="2127.79" waitingTime="2224.00" waitingCount="17" stopTime="0.00" timeLoss="2313.80" rerouteNo="1" devices="vehroute_flow_10152065052.39 tripinfo_flow_10152065052.39 routing_flow_10152065052.39 emissions_flow_10152065052.39" vType="car" speedFactor="1.00" vaporized="teleport">
        <emissions CO_abs="382879.344080" CO2_abs="6627734.769907" HC_abs="1898.071762" PMx_abs="160.261901" NOx_abs="3000.729754" fuel_abs="2114071.324706" electricity_abs="0"/>
    </tripinfo>
    <tripinfo id="flow_316775573.2" depart="62.00" departLane="41211484#1_0" departPos="5.10" departSpeed="0.00" departDelay="56.00" arrival="2793.00" arrivalLane="-685270734_0" arrivalPos="41.77" arrivalSpeed="8.90" duration="2731.00" routeLength="5169.83" waitingTime="1887.00" waitingCount="18" stopTime="0.00" timeLoss="1988.59" rerouteNo="7" devices="vehroute_flow_316775573.2 tripinfo_flow_316775573.2 routing_flow_316775573.2 emissions_flow_316775573.2" vType="car" speedFactor="1.07" vaporized="">
        <emissions CO_abs="347445.731568" CO2_abs="6591137.293338" HC_abs="1731.768205" PMx_abs="150.672812" NOx_abs="2922.506805" fuel_abs="2102386.318476" electricity_abs="0"/>
    </tripinfo>
    <tripinfo id="flow_3891079338.22" depart="782.00" departLane="24892132#0_0" departPos="5.10" departSpeed="0.00" departDelay="736.00" arrival="2861.00" arrivalLane="-27774100#4_0" arrivalPos="237.63" arrivalSpeed="0.00" duration="2079.00" routeLength="1951.40" waitingTime="1804.00" waitingCount="12" stopTime="0.00" timeLoss="1847.43" rerouteNo="2" devices="vehroute_flow_3891079338.22 tripinfo_flow_3891079338.22 routing_flow_3891079338.22 emissions_flow_3891079338.22" vType="car" speedFactor="0.82" vaporized="teleport">
        <emissions CO_abs="311548.854947" CO2_abs="5322599.186240" HC_abs="1543.114785" PMx_abs="127.768095" NOx_abs="2405.521516" fuel_abs="1697771.340098" electricity_abs="0"/>
    </tripinfo>
    <tripinfo id="flow_2634087847.41" depart="104.00" departLane="771368477#0_0" departPos="5.10" departSpeed="0.00" departDelay="20.00" arrival="2880.00" arrivalLane="542662641#1_0" arrivalPos="90.33" arrivalSpeed="7.80" duration="2776.00" routeLength="7507.72" waitingTime="1626.00" waitingCount="26" stopTime="0.00" timeLoss="1918.26" rerouteNo="13" devices="vehroute_flow_2634087847.41 tripinfo_flow_2634087847.41 routing_flow_2634087847.41 emissions_flow_2634087847.41" vType="car" speedFactor="1.14" vaporized="">
        <emissions CO_abs="314898.595342" CO2_abs="6606621.796982" HC_abs="1585.099743" PMx_abs="143.912741" NOx_abs="2888.727523" fuel_abs="2107312.130246" electricity_abs="0"/>
    </tripinfo>
    <tripinfo id="flow_2711712831.27" depart="533.00" departLane="222427536#0_0" departPos="5.10" departSpeed="0.00" departDelay="477.00" arrival="2903.00" arrivalLane="22329473_0" arrivalPos="100.23" arrivalSpeed="8.12" duration="2370.00" routeLength="2910.10" waitingTime="1697.00" waitingCount="18" stopTime="0.00" timeLoss="1769.94" rerouteNo="14" devices="vehroute_flow_2711712831.27 tripinfo_flow_2711712831.27 routing_flow_2711712831.27 emissions_flow_2711712831.27" vType="car" speedFactor="0.97" vaporized="">
        <emissions CO_abs="296597.806131" CO2_abs="5307478.933247" HC_abs="1473.409472" PMx_abs="125.020805" NOx_abs="2380.374156" fuel_abs="1692942.190038" electricity_abs="0"/>
    </tripinfo>
    <tripinfo id="flow_2711712831.42" depart="654.00" departLane="222427536#0_0" departPos="5.10" departSpeed="0.00" departDelay="568.00" arrival="2904.00" arrivalLane="22329473_0" arrivalPos="100.23" arrivalSpeed="10.70" duration="2250.00" routeLength="3030.41" waitingTime="1698.00" waitingCount="19" stopTime="0.00" timeLoss="1796.48" rerouteNo="6" devices="vehroute_flow_2711712831.42 tripinfo_flow_2711712831.42 routing_flow_2711712831.42 emissions_flow_2711712831.42" vType="car" speedFactor="1.28" vaporized="">
        <emissions CO_abs="296713.538848" CO2_abs="5352463.918197" HC_abs="1474.480897" PMx_abs="127.231016" NOx_abs="2405.838885" fuel_abs="1707288.403648" electricity_abs="0"/>
    </tripinfo>
    <tripinfo id="flow_10152091453.18" depart="482.00" departLane="429356220#0_0" departPos="5.10" departSpeed="0.00" departDelay="444.00" arrival="2944.00" arrivalLane="34474265#5_0" arrivalPos="124.62" arrivalSpeed="0.00" duration="2462.00" routeLength="1478.39" waitingTime="2253.00" waitingCount="14" stopTime="0.00" timeLoss="2308.05" rerouteNo="1" devices="vehroute_flow_10152091453.18 tripinfo_flow_10152091453.18 routing_flow_10152091453.18 emissions_flow_10152091453.18" vType="car" speedFactor="0.87" vaporized="teleport">
        <emissions CO_abs="385508.734836" CO2_abs="6489944.195158" HC_abs="1907.417018" PMx_abs="157.790920" NOx_abs="2945.230197" fuel_abs="2070125.544355" electricity_abs="0"/>
    </tripinfo>
    <tripinfo id="flow_2711712831.39" depart="600.00" departLane="222427536#0_0" departPos="5.10" departSpeed="0.00" departDelay="520.00" arrival="2983.00" arrivalLane="22329473_0" arrivalPos="100.23" arrivalSpeed="7.68" duration="2383.00" routeLength="2755.17" waitingTime="1602.00" waitingCount="23" stopTime="0.00" timeLoss="1680.56" rerouteNo="5" devices="vehroute_flow_2711712831.39 tripinfo_flow_2711712831.39 routing_flow_2711712831.39 emissions_flow_2711712831.39" vType="car" speedFactor="0.92" vaporized="">
        <emissions CO_abs="280926.933897" CO2_abs="5011506.004641" HC_abs="1396.116539" PMx_abs="117.928092" NOx_abs="2248.186522" fuel_abs="1598535.554681" electricity_abs="0"/>
    </tripinfo>
    <tripinfo id="flow_2711712831.41" depart="615.00" departLane="222427536#0_0" departPos="5.10" departSpeed="0.00" departDelay="531.00" arrival="2989.00" arrivalLane="22329473_0" arrivalPos="100.23" arrivalSpeed="9.01" duration="2374.00" routeLength="2768.38" waitingTime="1834.00" waitingCount="22" stopTime="0.00" timeLoss="1940.97" rerouteNo="6" devices="vehroute_flow_2711712831.41 tripinfo_flow_2711712831.41 routing_flow_2711712831.41 emissions_flow_2711712831.41" vType="car" speedFactor="1.08" vaporized="">
        <emissions CO_abs="320136.658599" CO2_abs="5655888.397042" HC_abs="1588.890639" PMx_abs="134.677437" NOx_abs="2546.898598" fuel_abs="1804076.257350" electricity_abs="0"/>
    </tripinfo>
    <tripinfo id="flow_10152065052.33" depart="219.00" departLane="153950038#0_0" departPos="5.10" departSpeed="0.00" departDelay="151.00" arrival="3047.00" arrivalLane="25171322#8_0" arrivalPos="131.79" arrivalSpeed="0.00" duration="2828.00" routeLength="2127.79" waitingTime="2560.00" waitingCount="17" stopTime="0.00" timeLoss="2647.17" rerouteNo="1" devices="vehroute_flow_10152065052.33 tripinfo_flow_10152065052.33 routing_flow_10152065052.33 emissions_flow_10152065052.33" vType="car" speedFactor="0.94" vaporized="teleport">
        <emissions CO_abs="438896.718666" CO2_abs="7529651.507864" HC_abs="2174.710548" PMx_abs="182.744619" NOx_abs="3413.884196" fuel_abs="2401760.563364" electricity_abs="0"/>
    </tripinfo>