<?xml version="1.0" encoding="UTF-8"?>

<!-- generated on 2024-07-26 02:59:38 by Eclipse SUMO sumo Version 1.18.0
<configuration xmlns:xsi="http://www.w3.org/2001/XMLSchema-instance" xsi:noNamespaceSchemaLocation="http://sumo.dlr.de/xsd/sumoConfiguration.xsd">

    <input>
        <net-file value="../osm.net.xml"/>
        <route-files value="../flow.rou.xml"/>
        <additional-files value="../osm.poly.xml.gz,../parkings.add.xml,parking.rerouter.add.xml,parking_config.add.xml"/>
    </input>

    <output>
        <emission-output value="output/emissions.xml"/>
        <summary-output value="output/summary.xml"/>
        <tripinfo-output value="output/tripinfos.xml"/>
        <vehroute-output value="output/vehroutes.xml"/>
        <stop-output value="output/stopinfo.xml"/>
        <statistic-output value="output/statistics.xml"/>
    </output>

    <processing>
        <ignore-route-errors value="true"/>
    </processing>

    <routing>
        <device.rerouting.adaptation-steps value="18"/>
        <device.rerouting.adaptation-interval value="10"/>
    </routing>

    <report>
        <verbose value="true"/>
        <duration-log.statistics value="true"/>
        <no-step-log value="true"/>
    </report>

    <gui_only>
        <gui-settings-file value="../sim.view.xml"/>
    </gui_only>

</configuration>
-->

<tripinfos xmlns:xsi="http://www.w3.org/2001/XMLSchema-instance" xsi:noNamespaceSchemaLocation="http://sumo.dlr.de/xsd/tripinfo_file.xsd">
    <tripinfo id="flow_10152091453.11" depart="344.00" departLane="429356220#0_0" departPos="5.10" departSpeed="0.00" departDelay="320.00" arrival="804.00" arrivalLane="34474265#5_0" arrivalPos="124.62" arrivalSpeed="0.00" duration="460.00" routeLength="1478.39" waitingTime="302.00" waitingCount="2" stopTime="0.00" timeLoss="335.91" rerouteNo="1" devices="vehroute_flow_10152091453.11 tripinfo_flow_10152091453.11 routing_flow_10152091453.11 emissions_flow_10152091453.11" vType="car" speedFactor="1.08" vaporized="teleport">
        <emissions CO_abs="57273.229084" CO2_abs="1250402.481193" HC_abs="289.159880" PMx_abs="26.702267" NOx_abs="542.438478" fuel_abs="398839.648490" electricity_abs="0"/>
    </tripinfo>
    <tripinfo id="flow_10152065052.29" depart="184.00" departLane="153950038#0_0" departPos="5.10" departSpeed="0.00" departDelay="124.00" arrival="880.00" arrivalLane="25171322#8_0" arrivalPos="131.79" arrivalSpeed="0.00" duration="696.00" routeLength="2127.79" waitingTime="482.00" waitingCount="12" stopTime="0.00" timeLoss="530.31" rerouteNo="1" devices="vehroute_flow_10152065052.29 tripinfo_flow_10152065052.29 routing_flow_10152065052.29 emissions_flow_10152065052.29" vType="car" speedFactor="1.02" vaporized="teleport">
        <emissions CO_abs="90934.532621" CO2_abs="1939691.229564" HC_abs="457.904004" PMx_abs="42.473450" NOx_abs="846.841576" fuel_abs="618701.617390" electricity_abs="0"/>
    </tripinfo>
    <tripinfo id="flow_10152091453.12" depart="357.00" departLane="429356220#0_0" departPos="5.10" departSpeed="0.00" departDelay="331.00" arrival="1108.00" arrivalLane="34474265#5_0" arrivalPos="124.62" arrivalSpeed="0.00" duration="751.00" routeLength="1478.39" waitingTime="591.00" waitingCount="3" stopTime="0.00" timeLoss="610.86" rerouteNo="1" devices="vehroute_flow_10152091453.12 tripinfo_flow_10152091453.12 routing_flow_10152091453.12 emissions_flow_10152091453.12" vType="car" speedFactor="0.95" vaporized="teleport">
        <emissions CO_abs="104213.993548" CO2_abs="1965457.629672" HC_abs="519.815198" PMx_abs="44.345382" NOx_abs="868.391581" fuel_abs="626926.486997" electricity_abs="0"/>
    </tripinfo>
    <tripinfo id="flow_10152065052.25" depart="164.00" departLane="153950038#0_0" departPos="5.10" departSpeed="0.00" departDelay="112.00" arrival="1184.00" arrivalLane="25171322#8_0" arrivalPos="131.79" arrivalSpeed="0.00" duration="1020.00" routeLength="2127.79" waitingTime="809.00" waitingCount="13" stopTime="0.00" timeLoss="854.66" rerouteNo="1" devices="vehroute_flow_10152065052.25 tripinfo_flow_10152065052.25 routing_flow_10152065052.25 emissions_flow_10152065052.25" vType="car" speedFactor="1.02" vaporized="teleport">
        <emissions CO_abs="144459.899547" CO2_abs="2794522.123703" HC_abs="721.301451" PMx_abs="63.988450" NOx_abs="1239.307835" fuel_abs="891371.598655" electricity_abs="0"/>
    </tripinfo>
    <tripinfo id="flow_10152091453.13" depart="369.00" departLane="429356220#0_0" departPos="5.10" departSpeed="0.00" departDelay="341.00" arrival="1412.00" arrivalLane="34474265#5_0" arrivalPos="124.62" arrivalSpeed="0.00" duration="1043.00" routeLength="1478.39" waitingTime="885.00" waitingCount="5" stopTime="0.00" timeLoss="903.86" rerouteNo="1" devices="vehroute_flow_10152091453.13 tripinfo_flow_10152091453.13 routing_flow_10152091453.13 emissions_flow_10152091453.13" vType="car" speedFactor="0.96" vaporized="teleport">
        <emissions CO_abs="153049.894878" CO2_abs="2754252.182261" HC_abs="760.745655" PMx_abs="64.061019" NOx_abs="1229.650791" fuel_abs="878532.364160" electricity_abs="0"/>
    </tripinfo>
    <tripinfo id="flow_10152065052.24" depart="159.00" departLane="153950038#0_0" departPos="5.10" departSpeed="0.00" departDelay="109.00" arrival="1488.00" arrivalLane="25171322#8_0" arrivalPos="131.79" arrivalSpeed="0.00" duration="1329.00" routeLength="2127.79" waitingTime="1111.00" waitingCount="12" stopTime="0.00" timeLoss="1163.91" rerouteNo="1" devices="vehroute_flow_10152065052.24 tripinfo_flow_10152065052.24 routing_flow_10152065052.24 emissions_flow_10152065052.24" vType="car" speedFactor="1.03" vaporized="teleport">
        <emissions CO_abs="194664.133566" CO2_abs="3610738.282675" HC_abs="969.237381" PMx_abs="84.126427" NOx_abs="1611.579022" fuel_abs="1151724.385019" electricity_abs="0"/>
    </tripinfo>
    <tripinfo id="flow_10152091453.14" depart="382.00" departLane="429356220#0_0" departPos="5.10" departSpeed="0.00" departDelay="352.00" arrival="1716.00" arrivalLane="34474265#5_0" arrivalPos="124.62" arrivalSpeed="0.00" duration="1334.00" routeLength="1478.39" waitingTime="1146.00" waitingCount="6" stopTime="0.00" timeLoss="1163.39" rerouteNo="1" devices="vehroute_flow_10152091453.14 tripinfo_flow_10152091453.14 routing_flow_10152091453.14 emissions_flow_10152091453.14" vType="car" speedFactor="0.78" vaporized="teleport">
        <emissions CO_abs="198983.860896" CO2_abs="3475399.131853" HC_abs="987.148733" PMx_abs="81.644068" NOx_abs="1558.762923" fuel_abs="1108561.577842" electricity_abs="0"/>
    </tripinfo>
    <tripinfo id="flow_10152065052.33" depart="219.00" departLane="153950038#0_0" departPos="5.10" departSpeed="0.00" departDelay="151.00" arrival="1792.00" arrivalLane="25171322#8_0" arrivalPos="131.79" arrivalSpeed="0.00" duration="1573.00" routeLength="2127.79" waitingTime="1334.00" waitingCount="14" stopTime="0.00" timeLoss="1391.84" rerouteNo="1" devices="vehroute_flow_10152065052.33 tripinfo_flow_10152065052.33 routing_flow_10152065052.33 emissions_flow_10152065052.33" vType="car" speedFactor="0.94" vaporized="teleport">
        <emissions CO_abs="233600.971830" CO2_abs="4225151.214597" HC_abs="1162.197950" PMx_abs="99.911896" NOx_abs="1897.464894" fuel_abs="1347706.969542" electricity_abs="0"/>
    </tripinfo>
    <tripinfo id="flow_4662964930.16" depart="1098.00" departLane="41211484#1_0" departPos="5.10" departSpeed="0.00" departDelay="1064.00" arrival="2001.00" arrivalLane="27774529#0_0" arrivalPos="264.75" arrivalSpeed="0.00" duration="903.00" routeLength="3970.03" waitingTime="417.00" waitingCount="9" stopTime="0.00" timeLoss="464.13" rerouteNo="2" devices="vehroute_flow_4662964930.16 tripinfo_flow_4662964930.16 routing_flow_4662964930.16 emissions_flow_4662964930.16" vType="car" speedFactor="0.98" vaporized="teleport">
        <emissions CO_abs="97407.748340" CO2_abs="2385296.338468" HC_abs="495.713128" PMx_abs="46.003295" NOx_abs="999.996940" fuel_abs="760833.751287" electricity_abs="0"/>
    </tripinfo>
    <tripinfo id="flow_10152091453.15" depart="392.00" departLane="429356220#0_0" departPos="5.10" departSpeed="0.00" departDelay="360.00" arrival="2020.00" arrivalLane="34474265#5_0" arrivalPos="124.62" arrivalSpeed="0.00" duration="1628.00" routeLength="1478.39" waitingTime="1439.00" waitingCount="7" stopTime="0.00" timeLoss="1481.35" rerouteNo="1" devices="vehroute_flow_10152091453.15 tripinfo_flow_10152091453.15 routing_flow_10152091453.15 emissions_flow_10152091453.15" vType="car" speedFactor="0.91" vaporized="teleport">
        <emissions CO_abs="247937.472774" CO2_abs="4267632.932400" HC_abs="1228.700640" PMx_abs="101.711146" NOx_abs="1923.504082" fuel_abs="1361264.106190" electricity_abs="0"/>
    </tripinfo>
    <tripinfo id="flow_10152065052.35" depart="229.00" departLane="153950038#0_0" departPos="5.10" departSpeed="0.00" departDelay="157.00" arrival="2096.00" arrivalLane="25171322#8_0" arrivalPos="131.79" arrivalSpeed="0.00" duration="1867.00" routeLength="2127.79" waitingTime="1629.00" waitingCount="18" stopTime="0.00" timeLoss="1711.12" rerouteNo="1" devices="vehroute_flow_10152065052.35 tripinfo_flow_10152065052.35 routing_flow_10152065052.35 emissions_flow_10152065052.35" vType="car" speedFactor="1.08" vaporized="teleport">
        <emissions CO_abs="283248.693530" CO2_abs="5024932.081839" HC_abs="1406.626980" PMx_abs="120.259281" NOx_abs="2265.686130" fuel_abs="1602816.825095" electricity_abs="0"/>
    </tripinfo>
    <tripinfo id="flow_10152091453.16" depart="402.00" departLane="429356220#0_0" departPos="5.10" departSpeed="0.00" departDelay="368.00" arrival="2324.00" arrivalLane="34474265#5_0" arrivalPos="124.62" arrivalSpeed="0.00" duration="1922.00" routeLength="1478.39" waitingTime="1737.00" waitingCount="8" stopTime="0.00" timeLoss="1773.11" rerouteNo="1" devices="vehroute_flow_10152091453.16 tripinfo_flow_10152091453.16 routing_flow_10152091453.16 emissions_flow_10152091453.16" vType="car" speedFactor="0.90" vaporized="teleport">
        <emissions CO_abs="296557.567214" CO2_abs="5039666.653257" HC_abs="1468.266033" PMx_abs="121.360594" NOx_abs="2279.071340" fuel_abs="1607523.831068" electricity_abs="0"/>
    </tripinfo>
    <tripinfo id="flow_10152065052.26" depart="169.00" departLane="153950038#0_0" departPos="5.10" departSpeed="0.00" departDelay="115.00" arrival="2400.00" arrivalLane="25171322#8_0" arrivalPos="131.79" arrivalSpeed="0.00" duration="2231.00" routeLength="2127.79" waitingTime="1981.00" waitingCount="16" stopTime="0.00" timeLoss="2052.33" rerouteNo="1" devices="vehroute_flow_10152065052.26 tripinfo_flow_10152065052.26 routing_flow_10152065052.26 emissions_flow_10152065052.26" vType="car" speedFactor="0.95" vaporized="teleport">
        <emissions CO_abs="341358.085396" CO2_abs="5951478.753715" HC_abs="1693.132758" PMx_abs="142.736434" NOx_abs="2685.837475" fuel_abs="1898363.485434" electricity_abs="0"/>
    </tripinfo>
    <tripinfo id="flow_10152091453.17" depart="412.00" departLane="429356220#0_0" departPos="5.10" departSpeed="0.00" departDelay="376.00" arrival="2628.00" arrivalLane="34474265#5_0" arrivalPos="124.62" arrivalSpeed="0.00" duration="2216.00" routeLength="1478.39" waitingTime="2033.00" waitingCount="8" stopTime="0.00" timeLoss="2073.35" rerouteNo="1" devices="vehroute_flow_10152091453.17 tripinfo_flow_10152091453.17 routing_flow_10152091453.17 emissions_flow_10152091453.17" vType="car" speedFactor="0.94" vaporized="teleport">
        <emissions CO_abs="345044.094294" CO2_abs="5803152.328437" HC_abs="1706.879917" PMx_abs="140.646696" NOx_abs="2629.703272" fuel_abs="1851057.352186" electricity_abs="0"/>
    </tripinfo>
    <tripinfo id="flow_9217552165.0" depart="25.00" departLane="41211484#1_0" departPos="5.10" departSpeed="0.00" departDelay="23.00" arrival="2637.00" arrivalLane="397118977#0_0" arrivalPos="181.24" arrivalSpeed="2.36" duration="2612.00" routeLength="4718.25" waitingTime="1692.00" waitingCount="29" stopTime="0.00" timeLoss="1810.93" rerouteNo="2" devices="vehroute_flow_9217552165.0 tripinfo_flow_9217552165.0 routing_flow_9217552165.0 emissions_flow_9217552165.0" vType="car" speedFactor="0.85" vaporized="">
        <emissions CO_abs="359945.749378" CO2_abs="6807682.928352" HC_abs="1797.421021" PMx_abs="153.703665" NOx_abs="3018.722681" fuel_abs="2171460.784018" electricity_abs="0"/>
    </tripinfo>
    <tripinfo id="flow_10152065052.43" depart="270.00" departLane="153950038#0_0" departPos="5.10" departSpeed="0.00" departDelay="182.00" arrival="2704.00" arrivalLane="25171322#8_0" arrivalPos="131.79" arrivalSpeed="0.00" duration="2434.00" routeLength="2127.79" waitingTime="2184.00" waitingCount="20" stopTime="0.00" timeLoss="2276.71" rerouteNo="1" devices="vehroute_flow_10152065052.43 tripinfo_flow_10152065052.43 routing_flow_10152065052.43 emissions_flow_10152065052.43" vType="car" speedFactor="1.08" vaporized="teleport">
        <emissions CO_abs="376577.804811" CO2_abs="6517969.214778" HC_abs="1866.901865" PMx_abs="158.172612" NOx_abs="2954.463752" fuel_abs="2079058.416795" electricity_abs="0"/>
    </tripinfo>
    <tripinfo id="flow_10152091453.18" depart="474.00" departLane="429356220#0_0" departPos="5.10" departSpeed="0.00" departDelay="436.00" arrival="2932.00" arrivalLane="34474265#5_0" arrivalPos="124.62" arrivalSpeed="0.00" duration="2458.00" routeLength="1478.39" waitingTime="2276.00" waitingCount="10" stopTime="0.00" timeLoss="2303.67" rerouteNo="1" devices="vehroute_flow_10152091453.18 tripinfo_flow_10152091453.18 routing_flow_10152091453.18 emissions_flow_10152091453.18" vType="car" speedFactor="0.87" vaporized="teleport">
        <emissions CO_abs="385645.988907" CO2_abs="6476881.917518" HC_abs="1907.723235" PMx_abs="157.466083" NOx_abs="2938.163155" fuel_abs="2065959.685682" electricity_abs="0"/>
    </tripinfo>
    <tripinfo id="flow_10152065052.42" depart="268.00" departLane="153950038#0_0" departPos="5.10" departSpeed="0.00" departDelay="182.00" arrival="3008.00" arrivalLane="25171322#8_0" arrivalPos="131.79" arrivalSpeed="0.00" duration="2740.00" routeLength="2127.79" waitingTime="2487.00" waitingCount="21" stopTime="0.00" timeLoss="2569.14" rerouteNo="1" devices="vehroute_flow_10152065052.42 tripinfo_flow_10152065052.42 routing_flow_10152065052.42 emissions_flow_10152065052.42" vType="car" speedFactor="0.99" vaporized="teleport">
        <emissions CO_abs="425752.410862" CO2_abs="7292137.122342" HC_abs="2108.762864" PMx_abs="177.138058" NOx_abs="3305.786684" fuel_abs="2326000.026427" electricity_abs="0"/>
    </tripinfo>
    <tripinfo id="flow_10152091453.19" depart="484.00" departLane="429356220#0_0" departPos="5.10" departSpeed="0.00" departDelay="444.00" arrival="3236.00" arrivalLane="34474265#5_0" arrivalPos="124.62" arrivalSpeed="0.00" duration="2752.00" routeLength="1478.39" waitingTime="2569.00" waitingCount="12" stopTime="0.00" timeLoss="2629.17" rerouteNo="1" devices="vehroute_flow_10152091453.19 tripinfo_flow_10152091453.19 routing_flow_10152091453.19 emissions_flow_10152091453.19" vType="car" speedFactor="1.09" vaporized="teleport">
        <emissions CO_abs="435413.120956" CO2_abs="7296892.634938" HC_abs="2153.157819" PMx_abs="178.492173" NOx_abs="3317.053684" fuel_abs="2327521.426436" electricity_abs="0"/>
    </tripinfo>
    <tripinfo id="flow_4662964930.10" depart="945.00" departLane="41211484#1_0" departPos="5.10" departSpeed="0.00" departDelay="923.00" arrival="3243.00" arrivalLane="27774529#0_0" arrivalPos="264.75" arrivalSpeed="0.00" duration="2298.00" routeLength="3591.67" waitingTime="1787.00" waitingCount="28" stopTime="0.00" timeLoss="1887.17" rerouteNo="1" devices="vehroute_flow_4662964930.10 tripinfo_flow_4662964930.10 routing_flow_4662964930.10 emissions_flow_4662964930.10" vType="car" speedFactor="0.88" vaporized="teleport">
        <emissions CO_abs="331730.716727" CO2_abs="6148041.355211" HC_abs="1654.305209" PMx_abs="143.112683" NOx_abs="2748.149942" fuel_abs="1961053.343896" electricity_abs="0"/>
    </tripinfo>
    <tripinfo id="flow_10152065052.45" depart="283.00" departLane="153950038#0_0" departPos="5.10" departSpeed="0.00" departDelay="191.00" arrival="3312.00" arrivalLane="25171322#8_0" arrivalPos="131.79" arrivalSpeed="0.00" duration="3029.00" routeLength="2127.79" waitingTime="2770.00" waitingCount="22" stopTime="0.00" timeLoss="2871.95" rerouteNo="1" devices="vehroute_flow_10152065052.45 tripinfo_flow_10152065052.45 routing_flow_10152065052.45 emissions_flow_10152065052.45" vType="car" speedFactor="1.08" vaporized="teleport">
        <emissions CO_abs="474614.944177" CO2_abs="8111026.109490" HC_abs="2350.206896" PMx_abs="197.873135" NOx_abs="3683.174941" fuel_abs="2587203.685958" electricity_abs="0"/>
    </tripinfo>
    <tripinfo id="flow_9217552163.43" depart="698.00" departLane="216862003#0_0" departPos="5.10" departSpeed="0.00" departDelay="610.00" arrival="3402.00" arrivalLane="397118977#0_0" arrivalPos="181.24" arrivalSpeed="2.36" duration="2704.00" routeLength="4518.38" waitingTime="1921.00" waitingCount="17" stopTime="0.00" timeLoss="2034.81" rerouteNo="2" devices="vehroute_flow_9217552163.43 tripinfo_flow_9217552163.43 routing_flow_9217552163.43 emissions_flow_9217552163.43" vType="car" speedFactor="0.85" vaporized="">
        <emissions CO_abs="379290.217041" CO2_abs="7043469.307819" HC_abs="1891.184068" PMx_abs="160.848689" NOx_abs="3131.837153" fuel_abs="2246672.606236" electricity_abs="0"/>
    </tripinfo>
    <tripinfo id="flow_9217552163.27" depart="137.00" departLane="216862003#0_0" departPos="5.10" departSpeed="0.00" departDelay="81.00" arrival="3405.00" arrivalLane="397118977#0_0" arrivalPos="181.24" arrivalSpeed="2.97" duration="3268.00" routeLength="4513.34" waitingTime="2533.00" waitingCount="30" stopTime="0.00" timeLoss="2741.78" rerouteNo="2" devices="vehroute_flow_9217552163.27 tripinfo_flow_9217552163.27 routing_flow_9217552163.27 emissions_flow_9217552163.27" vType="car" speedFactor="1.07" vaporized="">
        <emissions CO_abs="479263.153957" CO2_abs="8721818.376392" HC_abs="2384.009554" PMx_abs="204.228827" NOx_abs="3908.310092" fuel_abs="2782019.942072" electricity_abs="0"/>
    </tripinfo>
    <tripinfo id="flow_9217552163.40" depart="677.00" departLane="216862003#0_0" departPos="5.10" departSpeed="0.00" departDelay="595.00" arrival="3408.00" arrivalLane="397118977#0_0" arrivalPos="181.24" arrivalSpeed="3.46" duration="2731.00" routeLength="4513.30" waitingTime="1996.00" waitingCount="28" stopTime="0.00" timeLoss="2240.00" rerouteNo="55" devices="vehroute_flow_9217552163.40 tripinfo_flow_9217552163.40 routing_flow_9217552163.40 emissions_flow_9217552163.40" vType="car" speedFactor="1.24" vaporized="">
        <emissions CO_abs="390570.442415" CO2_abs="7223483.137636" HC_abs="1946.042042" PMx_abs="166.931042" NOx_abs="3223.475560" fuel_abs="2304090.767126" electricity_abs="0"/>
    </tripinfo>
    <tripinfo id="flow_9217552165.2" depart="84.00" departLane="41211484#1_0" departPos="5.10" departSpeed="0.00" departDelay="78.00" arrival="3412.00" arrivalLane="397118977#0_0" arrivalPos="181.24" arrivalSpeed="3.01" duration="3328.00" routeLength="4723.29" waitingTime="2488.00" waitingCount="28" stopTime="0.00" timeLoss="2699.25" rerouteNo="2" devices="vehroute_flow_9217552165.2 tripinfo_flow_9217552165.2 routing_flow_9217552165.2 emissions_flow_9217552165.2" vType="car" speedFactor="1.08" vaporized="">
        <emissions CO_abs="484653.179874" CO2_abs="8793517.813810" HC_abs="2409.141144" PMx_abs="204.541161" NOx_abs="3930.782628" fuel_abs="2804892.524140" electricity_abs="0"/>
    </tripinfo>
    <tripinfo id="flow_10152091453.20" depart="494.00" departLane="429356220#0_0" departPos="5.10" departSpeed="0.00" departDelay="452.00" arrival="3540.00" arrivalLane="34474265#5_0" arrivalPos="124.62" arrivalSpeed="0.00" duration="3046.00" routeLength="1478.39" waitingTime="2874.00" waitingCount="12" stopTime="0.00" timeLoss="2904.21" rerouteNo="1" devices="vehroute_flow_10152091453.20 tripinfo_flow_10152091453.20 routing_flow_10152091453.20 emissions_flow_10152091453.20" vType="car" speedFactor="0.94" vaporized="teleport">
        <emissions CO_abs="483536.316521" CO2_abs="8038110.701246" HC_abs="2389.756107" PMx_abs="196.899965" NOx_abs="3654.802287" fuel_abs="2563953.224059" electricity_abs="0"/>
    </tripinfo>
    <tripinfo id="flow_4662964930.33" depart="1484.00" departLane="41211484#1_0" departPos="5.10" departSpeed="0.00" departDelay="1416.00" arrival="3547.00" arrivalLane="27774529#0_0" arrivalPos="264.75" arrivalSpeed="0.00" duration="2063.00" routeLength="3520.44" waitingTime="1592.00" waitingCount="28" stopTime="0.00" timeLoss="1704.62" rerouteNo="2" devices="vehroute_flow_4662964930.33 tripinfo_flow_4662964930.33 routing_flow_4662964930.33 emissions_flow_4662964930.33" vType="car" speedFactor="1.03" vaporized="teleport">
        <emissions CO_abs="299402.836263" CO2_abs="5582556.489419" HC_abs="1490.998190" PMx_abs="129.118842" NOx_abs="2487.803582" fuel_abs="1780679.037364" electricity_abs="0"/>
    </tripinfo>
    <tripinfo id="flow_10152065052.37" depart="248.00" departLane="153950038#0_0" departPos="5.10" departSpeed="0.00" departDelay="172.00" arrival="3616.00" arrivalLane="25171322#8_0" arrivalPos="131.79" arrivalSpeed="0.00" duration="3368.00" routeLength="2127.79" waitingTime="3107.00" waitingCount="20" stopTime="0.00" timeLoss="3193.22" rerouteNo="1" devices="vehroute_flow_10152065052.37 tripinfo_flow_10152065052.37 routing_flow_10152065052.37 emissions_flow_10152065052.37" vType="car" speedFactor="0.97" vaporized="teleport">
        <emissions CO_abs="528713.821576" CO2_abs="8966851.334381" HC_abs="2616.967707" PMx_abs="218.911549" NOx_abs="4072.925470" fuel_abs="2860191.852280" electricity_abs="0"/>
    </tripinfo>
    <tripinfo id="flow_2711712831.0" depart="7.00" departLane="222427536#0_0" departPos="5.10" departSpeed="0.00" departDelay="5.00" arrival="3652.00" arrivalLane="22329473_0" arrivalPos="100.23" arrivalSpeed="6.88" duration="3645.00" routeLength="320.39" waitingTime="0.00" waitingCount="0" stopTime="3600.00" timeLoss="8.29" rerouteNo="1" devices="vehroute_flow_2711712831.0 tripinfo_flow_2711712831.0 routing_flow_2711712831.0 emissions_flow_2711712831.0" vType="car" speedFactor="0.83" vaporized="">
        <emissions CO_abs="3084.434859" CO2_abs="138073.818402" HC_abs="17.240892" PMx_abs="2.383486" NOx_abs="56.811788" fuel_abs="44039.822931" electricity_abs="0"/>
    </tripinfo>
    <tripinfo id="flow_2711712831.1" depart="25.00" departLane="222427536#0_0" departPos="5.10" departSpeed="0.00" departDelay="21.00" arrival="3664.00" arrivalLane="22329473_0" arrivalPos="100.23" arrivalSpeed="8.51" duration="3639.00" routeLength="320.39" waitingTime="0.00" waitingCount="0" stopTime="3600.00" timeLoss="8.99" rerouteNo="1" devices="vehroute_flow_2711712831.1 tripinfo_flow_2711712831.1 routing_flow_2711712831.1 emissions_flow_2711712831.1" vType="car" speedFactor="1.02" vaporized="">
        <emissions CO_abs="2607.706315" CO2_abs="133500.184102" HC_abs="14.900571" PMx_abs="2.407785" NOx_abs="55.335774" fuel_abs="42580.674667" electricity_abs="0"/>
    </tripinfo>
    <tripinfo id="flow_697236821.0" depart="2.00" departLane="222427536#0_0" departPos="5.10" departSpeed="0.00" departDelay="0.00" arrival="3667.00" arrivalLane="-56926855#5_0" arrivalPos="189.38" arrivalSpeed="15.60" duration="3665.00" routeLength="824.58" waitingTime="0.00" waitingCount="0" stopTime="3600.00" timeLoss="10.29" rerouteNo="1" devices="vehroute_flow_697236821.0 tripinfo_flow_697236821.0 routing_flow_697236821.0 emissions_flow_697236821.0" vType="car" speedFactor="1.12" vaporized="">
        <emissions CO_abs="2947.794243" CO2_abs="248698.646411" HC_abs="17.341372" PMx_abs="3.836563" NOx_abs="95.261585" fuel_abs="79323.470725" electricity_abs="0"/>
    </tripinfo>
    <tripinfo id="flow_2711712831.2" depart="43.00" departLane="222427536#0_0" departPos="5.10" departSpeed="0.00" departDelay="37.00" arrival="3686.00" arrivalLane="22329473_0" arrivalPos="100.23" arrivalSpeed="7.72" duration="3643.00" routeLength="320.39" waitingTime="0.00" waitingCount="0" stopTime="3600.00" timeLoss="9.12" rerouteNo="1" devices="vehroute_flow_2711712831.2 tripinfo_flow_2711712831.2 routing_flow_2711712831.2 emissions_flow_2711712831.2" vType="car" speedFactor="0.93" vaporized="">
        <emissions CO_abs="2932.523370" CO2_abs="138521.178628" HC_abs="16.563035" PMx_abs="2.458317" NOx_abs="57.352072" fuel_abs="44182.337217" electricity_abs="0"/>
    </tripinfo>
    <tripinfo id="flow_6953905901.0" depart="5.00" departLane="316255056#0_0" departPos="5.10" departSpeed="0.00" departDelay="3.00" arrival="3688.00" arrivalLane="490735065_0" arrivalPos="67.61" arrivalSpeed="8.69" duration="3683.00" routeLength="498.86" waitingTime="17.00" waitingCount="3" stopTime="3606.00" timeLoss="22.36" rerouteNo="1" devices="vehroute_flow_6953905901.0 tripinfo_flow_6953905901.0 routing_flow_6953905901.0 emissions_flow_6953905901.0" vType="car" speedFactor="1.04" vaporized="">
        <emissions CO_abs="5744.475026" CO2_abs="222342.758802" HC_abs="31.252157" PMx_abs="3.677379" NOx_abs="90.243775" fuel_abs="70918.812383" electricity_abs="0"/>
    </tripinfo>
    <tripinfo id="flow_6953905901.1" depart="15.00" departLane="316255056#0_0" departPos="5.10" departSpeed="0.00" departDelay="11.00" arrival="3693.00" arrivalLane="490735065_0" arrivalPos="67.61" arrivalSpeed="7.99" duration="3678.00" routeLength="498.86" waitingTime="11.00" waitingCount="2" stopTime="3607.00" timeLoss="11.28" rerouteNo="1" devices="vehroute_flow_6953905901.1 tripinfo_flow_6953905901.1 routing_flow_6953905901.1 emissions_flow_6953905901.1" vType="car" speedFactor="0.96" vaporized="">
        <emissions CO_abs="4399.299878" CO2_abs="189826.517761" HC_abs="24.330815" PMx_abs="2.800155" NOx_abs="74.918078" fuel_abs="60547.437706" electricity_abs="0"/>
    </tripinfo>
    <tripinfo id="flow_697236821.1" depart="20.00" departLane="222427536#0_0" departPos="5.10" departSpeed="0.00" departDelay="16.00" arrival="3696.00" arrivalLane="-56926855#5_0" arrivalPos="189.38" arrivalSpeed="13.99" duration="3676.00" routeLength="824.58" waitingTime="1.00" waitingCount="1" stopTime="3600.00" timeLoss="15.10" rerouteNo="1" devices="vehroute_flow_697236821.1 tripinfo_flow_697236821.1 routing_flow_697236821.1 emissions_flow_697236821.1" vType="car" speedFactor="1.01" vaporized="">
        <emissions CO_abs="2802.738750" CO2_abs="230149.787861" HC_abs="17.184383" PMx_abs="3.123047" NOx_abs="86.137379" fuel_abs="73407.824607" electricity_abs="0"/>
    </tripinfo>
    <tripinfo id="flow_2711712831.3" depart="61.00" departLane="222427536#0_0" departPos="5.10" departSpeed="0.00" departDelay="53.00" arrival="3699.00" arrivalLane="22329473_0" arrivalPos="100.23" arrivalSpeed="8.92" duration="3638.00" routeLength="320.39" waitingTime="0.00" waitingCount="0" stopTime="3600.00" timeLoss="8.65" rerouteNo="1" devices="vehroute_flow_2711712831.3 tripinfo_flow_2711712831.3 routing_flow_2711712831.3 emissions_flow_2711712831.3" vType="car" speedFactor="1.07" vaporized="">
        <emissions CO_abs="2616.057988" CO2_abs="134928.507492" HC_abs="14.992385" PMx_abs="2.476041" NOx_abs="56.208196" fuel_abs="43036.187620" electricity_abs="0"/>
    </tripinfo>
    <tripinfo id="flow_3695727291.0" depart="9.00" departLane="222427536#0_0" departPos="5.10" departSpeed="0.00" departDelay="7.00" arrival="3700.00" arrivalLane="-828798886_0" arrivalPos="57.99" arrivalSpeed="7.27" duration="3691.00" routeLength="633.44" waitingTime="15.00" waitingCount="1" stopTime="3600.00" timeLoss="23.29" rerouteNo="1" devices="vehroute_flow_3695727291.0 tripinfo_flow_3695727291.0 routing_flow_3695727291.0 emissions_flow_3695727291.0" vType="car" speedFactor="0.87" vaporized="">
        <emissions CO_abs="6177.010778" CO2_abs="245394.395972" HC_abs="33.712309" PMx_abs="3.790324" NOx_abs="97.111083" fuel_abs="78271.659278" electricity_abs="0"/>
    </tripinfo>
    <tripinfo id="flow_3695727291.1" depart="27.00" departLane="222427536#0_0" departPos="5.10" departSpeed="0.00" departDelay="23.00" arrival="3703.00" arrivalLane="-828798886_0" arrivalPos="57.99" arrivalSpeed="8.47" duration="3676.00" routeLength="633.44" waitingTime="2.00" waitingCount="1" stopTime="3600.00" timeLoss="17.23" rerouteNo="1" devices="vehroute_flow_3695727291.1 tripinfo_flow_3695727291.1 routing_flow_3695727291.1 emissions_flow_3695727291.1" vType="car" speedFactor="1.02" vaporized="">
        <emissions CO_abs="4322.955534" CO2_abs="222419.451479" HC_abs="24.242341" PMx_abs="3.369324" NOx_abs="87.206259" fuel_abs="70942.728387" electricity_abs="0"/>
    </tripinfo>
    <tripinfo id="flow_9217552165.7" depart="863.00" departLane="41211484#1_0" departPos="5.10" departSpeed="0.00" departDelay="847.00" arrival="3703.00" arrivalLane="397118977#0_0" arrivalPos="181.24" arrivalSpeed="3.07" duration="2840.00" routeLength="4638.62" waitingTime="2022.00" waitingCount="27" stopTime="0.00" timeLoss="2200.64" rerouteNo="3" devices="vehroute_flow_9217552165.7 tripinfo_flow_9217552165.7 routing_flow_9217552165.7 emissions_flow_9217552165.7" vType="car" speedFactor="1.11" vaporized="">
        <emissions CO_abs="406720.733722" CO2_abs="7495512.263498" HC_abs="2021.957935" PMx_abs="171.632386" NOx_abs="3330.585054" fuel_abs="2390862.999752" electricity_abs="0"/>
    </tripinfo>
    <tripinfo id="flow_3695727291.2" depart="45.00" departLane="222427536#0_0" departPos="5.10" departSpeed="0.00" departDelay="39.00" arrival="3709.00" arrivalLane="-828798886_0" arrivalPos="57.99" arrivalSpeed="8.87" duration="3664.00" routeLength="633.44" waitingTime="0.00" waitingCount="0" stopTime="3600.00" timeLoss="8.13" rerouteNo="1" devices="vehroute_flow_3695727291.2 tripinfo_flow_3695727291.2 routing_flow_3695727291.2 emissions_flow_3695727291.2" vType="car" speedFactor="1.06" vaporized="">
        <emissions CO_abs="3026.666516" CO2_abs="200643.724807" HC_abs="17.662039" PMx_abs="2.879544" NOx_abs="77.012042" fuel_abs="63996.802143" electricity_abs="0"/>