<?xml version="1.0" encoding="UTF-8"?>

<!-- generated on 2024-07-26 01:24:05 by Eclipse SUMO sumo Version 1.18.0
<configuration xmlns:xsi="http://www.w3.org/2001/XMLSchema-instance" xsi:noNamespaceSchemaLocation="http://sumo.dlr.de/xsd/sumoConfiguration.xsd">

    <input>
        <net-file value="../osm.net.xml"/>
        <route-files value="../flow.rou.xml"/>
        <additional-files value="../osm.poly.xml.gz,../parkings.add.xml,parking.rerouter.add.xml,parking_config.add.xml"/>
    </input>

    <output>
        <emission-output value="output/emissions.xml"/>
        <summary-output value="output/summary.xml"/>
        <tripinfo-output value="output/tripinfos.xml"/>
        <vehroute-output value="output/vehroutes.xml"/>
        <stop-output value="output/stopinfo.xml"/>
        <statistic-output value="output/statistics.xml"/>
    </output>

    <processing>
        <ignore-route-errors value="true"/>
    </processing>

    <routing>
        <device.rerouting.adaptation-steps value="18"/>
        <device.rerouting.adaptation-interval value="10"/>
    </routing>

    <report>
        <verbose value="true"/>
        <duration-log.statistics value="true"/>
        <no-step-log value="true"/>
    </report>

    <gui_only>
        <gui-settings-file value="../sim.view.xml"/>
    </gui_only>

</configuration>
-->

<tripinfos xmlns:xsi="http://www.w3.org/2001/XMLSchema-instance" xsi:noNamespaceSchemaLocation="http://sumo.dlr.de/xsd/tripinfo_file.xsd">
    <tripinfo id="flow_10152091453.11" depart="344.00" departLane="429356220#0_0" departPos="5.10" departSpeed="0.00" departDelay="320.00" arrival="804.00" arrivalLane="34474265#5_0" arrivalPos="124.62" arrivalSpeed="0.00" duration="460.00" routeLength="1478.39" waitingTime="302.00" waitingCount="2" stopTime="0.00" timeLoss="335.91" rerouteNo="1" devices="vehroute_flow_10152091453.11 tripinfo_flow_10152091453.11 routing_flow_10152091453.11 emissions_flow_10152091453.11" vType="car" speedFactor="1.08" vaporized="teleport">
        <emissions CO_abs="57273.229084" CO2_abs="1250402.481193" HC_abs="289.159880" PMx_abs="26.702267" NOx_abs="542.438478" fuel_abs="398839.648490" electricity_abs="0"/>
    </tripinfo>
    <tripinfo id="flow_10152065052.29" depart="184.00" departLane="153950038#0_0" departPos="5.10" departSpeed="0.00" departDelay="124.00" arrival="880.00" arrivalLane="25171322#8_0" arrivalPos="131.79" arrivalSpeed="0.00" duration="696.00" routeLength="2127.79" waitingTime="482.00" waitingCount="12" stopTime="0.00" timeLoss="530.31" rerouteNo="1" devices="vehroute_flow_10152065052.29 tripinfo_flow_10152065052.29 routing_flow_10152065052.29 emissions_flow_10152065052.29" vType="car" speedFactor="1.02" vaporized="teleport">
        <emissions CO_abs="90934.532621" CO2_abs="1939691.229564" HC_abs="457.904004" PMx_abs="42.473450" NOx_abs="846.841576" fuel_abs="618701.617390" electricity_abs="0"/>
    </tripinfo>
    <tripinfo id="flow_10152091453.12" depart="357.00" departLane="429356220#0_0" departPos="5.10" departSpeed="0.00" departDelay="331.00" arrival="1108.00" arrivalLane="34474265#5_0" arrivalPos="124.62" arrivalSpeed="0.00" duration="751.00" routeLength="1478.39" waitingTime="591.00" waitingCount="3" stopTime="0.00" timeLoss="610.86" rerouteNo="1" devices="vehroute_flow_10152091453.12 tripinfo_flow_10152091453.12 routing_flow_10152091453.12 emissions_flow_10152091453.12" vType="car" speedFactor="0.95" vaporized="teleport">
        <emissions CO_abs="104213.993548" CO2_abs="1965457.629672" HC_abs="519.815198" PMx_abs="44.345382" NOx_abs="868.391581" fuel_abs="626926.486997" electricity_abs="0"/>
    </tripinfo>
    <tripinfo id="flow_10152065052.25" depart="164.00" departLane="153950038#0_0" departPos="5.10" departSpeed="0.00" departDelay="112.00" arrival="1184.00" arrivalLane="25171322#8_0" arrivalPos="131.79" arrivalSpeed="0.00" duration="1020.00" routeLength="2127.79" waitingTime="809.00" waitingCount="13" stopTime="0.00" timeLoss="854.66" rerouteNo="1" devices="vehroute_flow_10152065052.25 tripinfo_flow_10152065052.25 routing_flow_10152065052.25 emissions_flow_10152065052.25" vType="car" speedFactor="1.02" vaporized="teleport">
        <emissions CO_abs="144459.899547" CO2_abs="2794522.123703" HC_abs="721.301451" PMx_abs="63.988450" NOx_abs="1239.307835" fuel_abs="891371.598655" electricity_abs="0"/>
    </tripinfo>
    <tripinfo id="flow_10152091453.13" depart="369.00" departLane="429356220#0_0" departPos="5.10" departSpeed="0.00" departDelay="341.00" arrival="1412.00" arrivalLane="34474265#5_0" arrivalPos="124.62" arrivalSpeed="0.00" duration="1043.00" routeLength="1478.39" waitingTime="885.00" waitingCount="5" stopTime="0.00" timeLoss="903.86" rerouteNo="1" devices="vehroute_flow_10152091453.13 tripinfo_flow_10152091453.13 routing_flow_10152091453.13 emissions_flow_10152091453.13" vType="car" speedFactor="0.96" vaporized="teleport">
        <emissions CO_abs="153049.894878" CO2_abs="2754252.182261" HC_abs="760.745655" PMx_abs="64.061019" NOx_abs="1229.650791" fuel_abs="878532.364160" electricity_abs="0"/>
    </tripinfo>
    <tripinfo id="flow_10152065052.24" depart="159.00" departLane="153950038#0_0" departPos="5.10" departSpeed="0.00" departDelay="109.00" arrival="1488.00" arrivalLane="25171322#8_0" arrivalPos="131.79" arrivalSpeed="0.00" duration="1329.00" routeLength="2127.79" waitingTime="1111.00" waitingCount="12" stopTime="0.00" timeLoss="1163.91" rerouteNo="1" devices="vehroute_flow_10152065052.24 tripinfo_flow_10152065052.24 routing_flow_10152065052.24 emissions_flow_10152065052.24" vType="car" speedFactor="1.03" vaporized="teleport">
        <emissions CO_abs="194664.133566" CO2_abs="3610738.282675" HC_abs="969.237381" PMx_abs="84.126427" NOx_abs="1611.579022" fuel_abs="1151724.385019" electricity_abs="0"/>
    </tripinfo>
    <tripinfo id="flow_10152091453.14" depart="382.00" departLane="429356220#0_0" departPos="5.10" departSpeed="0.00" departDelay="352.00" arrival="1716.00" arrivalLane="34474265#5_0" arrivalPos="124.62" arrivalSpeed="0.00" duration="1334.00" routeLength="1478.39" waitingTime="1146.00" waitingCount="6" stopTime="0.00" timeLoss="1163.39" rerouteNo="1" devices="vehroute_flow_10152091453.14 tripinfo_flow_10152091453.14 routing_flow_10152091453.14 emissions_flow_10152091453.14" vType="car" speedFactor="0.78" vaporized="teleport">
        <emissions CO_abs="198983.860896" CO2_abs="3475399.131853" HC_abs="987.148733" PMx_abs="81.644068" NOx_abs="1558.762923" fuel_abs="1108561.577842" electricity_abs="0"/>
    </tripinfo>
    <tripinfo id="flow_10152065052.33" depart="219.00" departLane="153950038#0_0" departPos="5.10" departSpeed="0.00" departDelay="151.00" arrival="1792.00" arrivalLane="25171322#8_0" arrivalPos="131.79" arrivalSpeed="0.00" duration="1573.00" routeLength="2127.79" waitingTime="1334.00" waitingCount="14" stopTime="0.00" timeLoss="1391.84" rerouteNo="1" devices="vehroute_flow_10152065052.33 tripinfo_flow_10152065052.33 routing_flow_10152065052.33 emissions_flow_10152065052.33" vType="car" speedFactor="0.94" vaporized="teleport">
        <emissions CO_abs="233600.971830" CO2_abs="4225151.214597" HC_abs="1162.197950" PMx_abs="99.911896" NOx_abs="1897.464894" fuel_abs="1347706.969542" electricity_abs="0"/>
    </tripinfo>
    <tripinfo id="flow_3891079338.9" depart="585.00" departLane="24892132#0_0" departPos="5.10" departSpeed="0.00" departDelay="565.00" arrival="1815.00" arrivalLane="-27774100#4_0" arrivalPos="237.63" arrivalSpeed="0.00" duration="1230.00" routeLength="2960.50" waitingTime="553.00" waitingCount="18" stopTime="0.00" timeLoss="687.99" rerouteNo="18" devices="vehroute_flow_3891079338.9 tripinfo_flow_3891079338.9 routing_flow_3891079338.9 emissions_flow_3891079338.9" vType="car" speedFactor="0.97" vaporized="teleport">
        <emissions CO_abs="118220.047308" CO2_abs="2496803.083444" HC_abs="595.715300" PMx_abs="53.053366" NOx_abs="1086.594818" fuel_abs="796405.342079" electricity_abs="0"/>
    </tripinfo>
    <tripinfo id="flow_9217552163.45" depart="671.00" departLane="216862003#0_0" departPos="5.10" departSpeed="0.00" departDelay="579.00" arrival="1928.00" arrivalLane="397118977#0_0" arrivalPos="181.24" arrivalSpeed="2.97" duration="1257.00" routeLength="4556.81" waitingTime="481.00" waitingCount="19" stopTime="0.00" timeLoss="661.63" rerouteNo="4" devices="vehroute_flow_9217552163.45 tripinfo_flow_9217552163.45 routing_flow_9217552163.45 emissions_flow_9217552163.45" vType="car" speedFactor="1.07" vaporized="">
        <emissions CO_abs="145320.201802" CO2_abs="3349973.721560" HC_abs="735.864020" PMx_abs="68.117184" NOx_abs="1435.242209" fuel_abs="1068536.063843" electricity_abs="0"/>
    </tripinfo>
    <tripinfo id="flow_10152091453.15" depart="392.00" departLane="429356220#0_0" departPos="5.10" departSpeed="0.00" departDelay="360.00" arrival="2020.00" arrivalLane="34474265#5_0" arrivalPos="124.62" arrivalSpeed="0.00" duration="1628.00" routeLength="1478.39" waitingTime="1439.00" waitingCount="7" stopTime="0.00" timeLoss="1481.35" rerouteNo="1" devices="vehroute_flow_10152091453.15 tripinfo_flow_10152091453.15 routing_flow_10152091453.15 emissions_flow_10152091453.15" vType="car" speedFactor="0.91" vaporized="teleport">
        <emissions CO_abs="247937.472774" CO2_abs="4267632.932400" HC_abs="1228.700640" PMx_abs="101.711146" NOx_abs="1923.504082" fuel_abs="1361264.106190" electricity_abs="0"/>
    </tripinfo>
    <tripinfo id="flow_10152065052.35" depart="229.00" departLane="153950038#0_0" departPos="5.10" departSpeed="0.00" departDelay="157.00" arrival="2096.00" arrivalLane="25171322#8_0" arrivalPos="131.79" arrivalSpeed="0.00" duration="1867.00" routeLength="2127.79" waitingTime="1629.00" waitingCount="18" stopTime="0.00" timeLoss="1711.12" rerouteNo="1" devices="vehroute_flow_10152065052.35 tripinfo_flow_10152065052.35 routing_flow_10152065052.35 emissions_flow_10152065052.35" vType="car" speedFactor="1.08" vaporized="teleport">
        <emissions CO_abs="283248.693530" CO2_abs="5024932.081839" HC_abs="1406.626980" PMx_abs="120.259281" NOx_abs="2265.686130" fuel_abs="1602816.825095" electricity_abs="0"/>
    </tripinfo>
    <tripinfo id="flow_5006715813.1" depart="17.00" departLane="1080571755#0_0" departPos="5.10" departSpeed="0.00" departDelay="13.00" arrival="2185.00" arrivalLane="-17242225_0" arrivalPos="41.66" arrivalSpeed="0.00" duration="2168.00" routeLength="166.04" waitingTime="2096.00" waitingCount="7" stopTime="0.00" timeLoss="2109.53" rerouteNo="0" devices="vehroute_flow_5006715813.1 tripinfo_flow_5006715813.1 routing_flow_5006715813.1 emissions_flow_5006715813.1" vType="car" speedFactor="0.91" vaporized="teleport">
        <emissions CO_abs="348823.578264" CO2_abs="5602037.694636" HC_abs="1719.880291" PMx_abs="140.266710" NOx_abs="2567.727318" fuel_abs="1786911.822244" electricity_abs="0"/>
    </tripinfo>
    <tripinfo id="flow_9217552165.3" depart="117.00" departLane="41211484#1_0" departPos="5.10" departSpeed="0.00" departDelay="109.00" arrival="2248.00" arrivalLane="397118977#0_0" arrivalPos="181.24" arrivalSpeed="2.70" duration="2131.00" routeLength="4718.25" waitingTime="1329.00" waitingCount="18" stopTime="0.00" timeLoss="1428.90" rerouteNo="2" devices="vehroute_flow_9217552165.3 tripinfo_flow_9217552165.3 routing_flow_9217552165.3 emissions_flow_9217552165.3" vType="car" speedFactor="0.97" vaporized="">
        <emissions CO_abs="286372.638634" CO2_abs="5569708.693711" HC_abs="1430.747689" PMx_abs="122.539628" NOx_abs="2442.971692" fuel_abs="1776580.158576" electricity_abs="0"/>
    </tripinfo>
    <tripinfo id="flow_6293406945.21" depart="452.00" departLane="222427536#0_0" departPos="5.10" departSpeed="0.00" departDelay="408.00" arrival="2279.00" arrivalLane="53839706_2" arrivalPos="86.21" arrivalSpeed="7.05" duration="1827.00" routeLength="2774.72" waitingTime="848.00" waitingCount="11" stopTime="0.00" timeLoss="904.33" rerouteNo="7" devices="vehroute_flow_6293406945.21 tripinfo_flow_6293406945.21 routing_flow_6293406945.21 emissions_flow_6293406945.21" vType="car" speedFactor="0.93" vaporized="">
        <emissions CO_abs="151449.939574" CO2_abs="2877723.453195" HC_abs="756.579709" PMx_abs="66.470092" NOx_abs="1282.064117" fuel_abs="917911.520379" electricity_abs="0"/>
    </tripinfo>
    <tripinfo id="flow_10152091453.16" depart="402.00" departLane="429356220#0_0" departPos="5.10" departSpeed="0.00" departDelay="368.00" arrival="2324.00" arrivalLane="34474265#5_0" arrivalPos="124.62" arrivalSpeed="0.00" duration="1922.00" routeLength="1478.39" waitingTime="1737.00" waitingCount="8" stopTime="0.00" timeLoss="1773.11" rerouteNo="1" devices="vehroute_flow_10152091453.16 tripinfo_flow_10152091453.16 routing_flow_10152091453.16 emissions_flow_10152091453.16" vType="car" speedFactor="0.90" vaporized="teleport">
        <emissions CO_abs="296557.567214" CO2_abs="5039666.653257" HC_abs="1468.266033" PMx_abs="121.360594" NOx_abs="2279.071340" fuel_abs="1607523.831068" electricity_abs="0"/>
    </tripinfo>
    <tripinfo id="flow_10152065052.26" depart="169.00" departLane="153950038#0_0" departPos="5.10" departSpeed="0.00" departDelay="115.00" arrival="2400.00" arrivalLane="25171322#8_0" arrivalPos="131.79" arrivalSpeed="0.00" duration="2231.00" routeLength="2127.79" waitingTime="1981.00" waitingCount="16" stopTime="0.00" timeLoss="2052.33" rerouteNo="1" devices="vehroute_flow_10152065052.26 tripinfo_flow_10152065052.26 routing_flow_10152065052.26 emissions_flow_10152065052.26" vType="car" speedFactor="0.95" vaporized="teleport">
        <emissions CO_abs="341358.085396" CO2_abs="5951478.753715" HC_abs="1693.132758" PMx_abs="142.736434" NOx_abs="2685.837475" fuel_abs="1898363.485434" electricity_abs="0"/>
    </tripinfo>
    <tripinfo id="flow_3891079340.36" depart="364.00" departLane="90042841#0_0" departPos="5.10" departSpeed="0.00" departDelay="290.00" arrival="2423.00" arrivalLane="-27774100#4_0" arrivalPos="237.63" arrivalSpeed="0.00" duration="2059.00" routeLength="3491.68" waitingTime="1318.00" waitingCount="34" stopTime="0.00" timeLoss="1518.42" rerouteNo="19" devices="vehroute_flow_3891079340.36 tripinfo_flow_3891079340.36 routing_flow_3891079340.36 emissions_flow_3891079340.36" vType="car" speedFactor="0.94" vaporized="teleport">
        <emissions CO_abs="252751.808016" CO2_abs="4882943.601148" HC_abs="1264.724965" PMx_abs="112.347673" NOx_abs="2176.765053" fuel_abs="1557516.952287" electricity_abs="0"/>
    </tripinfo>
    <tripinfo id="flow_9217552163.42" depart="660.00" departLane="216862003#0_0" departPos="5.10" departSpeed="0.00" departDelay="574.00" arrival="2540.00" arrivalLane="397118977#0_0" arrivalPos="181.24" arrivalSpeed="2.91" duration="1880.00" routeLength="4556.81" waitingTime="1111.00" waitingCount="23" stopTime="0.00" timeLoss="1272.08" rerouteNo="4" devices="vehroute_flow_9217552163.42 tripinfo_flow_9217552163.42 routing_flow_9217552163.42 emissions_flow_9217552163.42" vType="car" speedFactor="1.05" vaporized="">
        <emissions CO_abs="246975.596053" CO2_abs="4961160.811702" HC_abs="1237.143135" PMx_abs="108.184986" NOx_abs="2171.985670" fuel_abs="1582466.251539" electricity_abs="0"/>
    </tripinfo>
    <tripinfo id="flow_2634087847.46" depart="117.00" departLane="771368477#0_0" departPos="5.10" departSpeed="0.00" departDelay="23.00" arrival="2541.00" arrivalLane="542662641#1_1" arrivalPos="90.33" arrivalSpeed="11.85" duration="2424.00" routeLength="6286.30" waitingTime="1399.00" waitingCount="29" stopTime="0.00" timeLoss="1550.83" rerouteNo="13" devices="vehroute_flow_2634087847.46 tripinfo_flow_2634087847.46 routing_flow_2634087847.46 emissions_flow_2634087847.46" vType="car" speedFactor="0.85" vaporized="">
        <emissions CO_abs="273661.329199" CO2_abs="5718617.439847" HC_abs="1378.892025" PMx_abs="122.689378" NOx_abs="2491.431707" fuel_abs="1824068.581632" electricity_abs="0"/>
    </tripinfo>
    <tripinfo id="flow_11803573687.25" depart="516.00" departLane="222427536#0_0" departPos="5.10" departSpeed="0.00" departDelay="464.00" arrival="2588.00" arrivalLane="-17242225_0" arrivalPos="41.66" arrivalSpeed="0.00" duration="2072.00" routeLength="2893.05" waitingTime="1161.00" waitingCount="17" stopTime="0.00" timeLoss="1228.41" rerouteNo="8" devices="vehroute_flow_11803573687.25 tripinfo_flow_11803573687.25 routing_flow_11803573687.25 emissions_flow_11803573687.25" vType="car" speedFactor="1.03" vaporized="teleport">
        <emissions CO_abs="203285.597955" CO2_abs="3739491.232706" HC_abs="1010.517693" PMx_abs="87.480124" NOx_abs="1669.910493" fuel_abs="1192793.605475" electricity_abs="0"/>
    </tripinfo>
    <tripinfo id="flow_10152091453.17" depart="412.00" departLane="429356220#0_0" departPos="5.10" departSpeed="0.00" departDelay="376.00" arrival="2628.00" arrivalLane="34474265#5_0" arrivalPos="124.62" arrivalSpeed="0.00" duration="2216.00" routeLength="1478.39" waitingTime="2033.00" waitingCount="8" stopTime="0.00" timeLoss="2073.35" rerouteNo="1" devices="vehroute_flow_10152091453.17 tripinfo_flow_10152091453.17 routing_flow_10152091453.17 emissions_flow_10152091453.17" vType="car" speedFactor="0.94" vaporized="teleport">
        <emissions CO_abs="345044.094294" CO2_abs="5803152.328437" HC_abs="1706.879917" PMx_abs="140.646696" NOx_abs="2629.703272" fuel_abs="1851057.352186" electricity_abs="0"/>
    </tripinfo>
    <tripinfo id="flow_10152065052.43" depart="270.00" departLane="153950038#0_0" departPos="5.10" departSpeed="0.00" departDelay="182.00" arrival="2704.00" arrivalLane="25171322#8_0" arrivalPos="131.79" arrivalSpeed="0.00" duration="2434.00" routeLength="2127.79" waitingTime="2184.00" waitingCount="20" stopTime="0.00" timeLoss="2276.71" rerouteNo="1" devices="vehroute_flow_10152065052.43 tripinfo_flow_10152065052.43 routing_flow_10152065052.43 emissions_flow_10152065052.43" vType="car" speedFactor="1.08" vaporized="teleport">
        <emissions CO_abs="376577.804811" CO2_abs="6517969.214778" HC_abs="1866.901865" PMx_abs="158.172612" NOx_abs="2954.463752" fuel_abs="2079058.416795" electricity_abs="0"/>
    </tripinfo>
    <tripinfo id="flow_11803573687.14" depart="302.00" departLane="222427536#0_0" departPos="5.10" departSpeed="0.00" departDelay="272.00" arrival="2773.00" arrivalLane="-17242225_0" arrivalPos="41.66" arrivalSpeed="0.00" duration="2471.00" routeLength="3147.21" waitingTime="1650.00" waitingCount="14" stopTime="0.00" timeLoss="1723.94" rerouteNo="9" devices="vehroute_flow_11803573687.14 tripinfo_flow_11803573687.14 routing_flow_11803573687.14 emissions_flow_11803573687.14" vType="car" speedFactor="1.01" vaporized="teleport">
        <emissions CO_abs="284637.374995" CO2_abs="5099448.666346" HC_abs="1412.963055" PMx_abs="120.789053" NOx_abs="2288.593215" fuel_abs="1626585.216720" electricity_abs="0"/>
    </tripinfo>
    <tripinfo id="flow_9217552163.44" depart="668.00" departLane="216862003#0_0" departPos="5.10" departSpeed="0.00" departDelay="578.00" arrival="2840.00" arrivalLane="397118977#0_0" arrivalPos="181.24" arrivalSpeed="2.96" duration="2172.00" routeLength="4556.81" waitingTime="1388.00" waitingCount="24" stopTime="0.00" timeLoss="1575.82" rerouteNo="4" devices="vehroute_flow_9217552163.44 tripinfo_flow_9217552163.44 routing_flow_9217552163.44 emissions_flow_9217552163.44" vType="car" speedFactor="1.07" vaporized="">
        <emissions CO_abs="294798.054136" CO2_abs="5697010.580351" HC_abs="1471.796339" PMx_abs="127.115894" NOx_abs="2512.590434" fuel_abs="1817184.810797" electricity_abs="0"/>
    </tripinfo>
    <tripinfo id="flow_10152091453.18" depart="474.00" departLane="429356220#0_0" departPos="5.10" departSpeed="0.00" departDelay="436.00" arrival="2932.00" arrivalLane="34474265#5_0" arrivalPos="124.62" arrivalSpeed="0.00" duration="2458.00" routeLength="1478.39" waitingTime="2274.00" waitingCount="11" stopTime="0.00" timeLoss="2304.05" rerouteNo="1" devices="vehroute_flow_10152091453.18 tripinfo_flow_10152091453.18 routing_flow_10152091453.18 emissions_flow_10152091453.18" vType="car" speedFactor="0.87" vaporized="teleport">
        <emissions CO_abs="385331.983854" CO2_abs="6467613.697965" HC_abs="1906.036948" PMx_abs="157.075021" NOx_abs="2932.898209" fuel_abs="2063003.698784" electricity_abs="0"/>
    </tripinfo>
    <tripinfo id="flow_11803573687.33" depart="579.00" departLane="222427536#0_0" departPos="5.10" departSpeed="0.00" departDelay="511.00" arrival="2958.00" arrivalLane="-17242225_0" arrivalPos="41.66" arrivalSpeed="0.00" duration="2379.00" routeLength="2866.65" waitingTime="1340.00" waitingCount="13" stopTime="0.00" timeLoss="1408.05" rerouteNo="8" devices="vehroute_flow_11803573687.33 tripinfo_flow_11803573687.33 routing_flow_11803573687.33 emissions_flow_11803573687.33" vType="car" speedFactor="1.12" vaporized="teleport">
        <emissions CO_abs="232722.652295" CO2_abs="4187897.960134" HC_abs="1155.126090" PMx_abs="99.549967" NOx_abs="1880.488054" fuel_abs="1335824.286380" electricity_abs="0"/>
    </tripinfo>
    <tripinfo id="flow_10152065052.42" depart="268.00" departLane="153950038#0_0" departPos="5.10" departSpeed="0.00" departDelay="182.00" arrival="3008.00" arrivalLane="25171322#8_0" arrivalPos="131.79" arrivalSpeed="0.00" duration="2740.00" routeLength="2127.79" waitingTime="2487.00" waitingCount="21" stopTime="0.00" timeLoss="2569.14" rerouteNo="1" devices="vehroute_flow_10152065052.42 tripinfo_flow_10152065052.42 routing_flow_10152065052.42 emissions_flow_10152065052.42" vType="car" speedFactor="0.99" vaporized="teleport">
        <emissions CO_abs="425752.410862" CO2_abs="7292137.122342" HC_abs="2108.762864" PMx_abs="177.138058" NOx_abs="3305.786684" fuel_abs="2326000.026427" electricity_abs="0"/>
    </tripinfo>
    <tripinfo id="flow_3891079340.33" depart="349.00" departLane="90042841#0_0" departPos="5.10" departSpeed="0.00" departDelay="281.00" arrival="3031.00" arrivalLane="-27774100#4_0" arrivalPos="237.63" arrivalSpeed="0.00" duration="2682.00" routeLength="3486.64" waitingTime="1941.00" waitingCount="39" stopTime="0.00" timeLoss="2124.68" rerouteNo="21" devices="vehroute_flow_3891079340.33 tripinfo_flow_3891079340.33 routing_flow_3891079340.33 emissions_flow_3891079340.33" vType="car" speedFactor="0.89" vaporized="teleport">
        <emissions CO_abs="354379.387909" CO2_abs="6474868.712226" HC_abs="1765.075893" PMx_abs="151.718741" NOx_abs="2902.819875" fuel_abs="2065304.024311" electricity_abs="0"/>
    </tripinfo>
    <tripinfo id="flow_9217552165.5" depart="183.00" departLane="41211484#1_0" departPos="5.10" departSpeed="0.00" departDelay="171.00" arrival="3138.00" arrivalLane="397118977#0_0" arrivalPos="181.24" arrivalSpeed="3.10" duration="2955.00" routeLength="4612.99" waitingTime="2187.00" waitingCount="22" stopTime="0.00" timeLoss="2325.97" rerouteNo="3" devices="vehroute_flow_9217552165.5 tripinfo_flow_9217552165.5 routing_flow_9217552165.5 emissions_flow_9217552165.5" vType="car" speedFactor="1.11" vaporized="">
        <emissions CO_abs="425787.164885" CO2_abs="7823523.222233" HC_abs="2117.653345" PMx_abs="180.181112" NOx_abs="3483.733075" fuel_abs="2495489.262274" electricity_abs="0"/>
    </tripinfo>
    <tripinfo id="flow_2634087847.49" depart="124.00" departLane="771368477#0_0" departPos="5.10" departSpeed="0.00" departDelay="24.00" arrival="3168.00" arrivalLane="542662641#1_1" arrivalPos="90.33" arrivalSpeed="11.74" duration="3044.00" routeLength="6291.34" waitingTime="1989.00" waitingCount="36" stopTime="0.00" timeLoss="2164.85" rerouteNo="13" devices="vehroute_flow_2634087847.49 tripinfo_flow_2634087847.49 routing_flow_2634087847.49 emissions_flow_2634087847.49" vType="car" speedFactor="0.85" vaporized="">
        <emissions CO_abs="374424.191912" CO2_abs="7321853.876719" HC_abs="1875.346709" PMx_abs="162.987669" NOx_abs="3227.798328" fuel_abs="2335461.830238" electricity_abs="0"/>
    </tripinfo>
    <tripinfo id="flow_671847233.32" depart="342.00" departLane="90042841#0_0" departPos="5.10" departSpeed="0.00" departDelay="276.00" arrival="3168.00" arrivalLane="23332581#1_0" arrivalPos="128.86" arrivalSpeed="0.00" duration="2826.00" routeLength="2794.96" waitingTime="1664.00" waitingCount="25" stopTime="0.00" timeLoss="1750.80" rerouteNo="7" devices="vehroute_flow_671847233.32 tripinfo_flow_671847233.32 routing_flow_671847233.32 emissions_flow_671847233.32" vType="car" speedFactor="0.86" vaporized="teleport">
        <emissions CO_abs="291772.047120" CO2_abs="5122903.106716" HC_abs="1448.618292" PMx_abs="123.025810" NOx_abs="2315.573210" fuel_abs="1634068.269385" electricity_abs="0"/>
    </tripinfo>
    <tripinfo id="flow_11803573687.24" depart="503.00" departLane="222427536#0_0" departPos="5.10" departSpeed="0.00" departDelay="453.00" arrival="3185.00" arrivalLane="-17242225_0" arrivalPos="41.66" arrivalSpeed="0.00" duration="2682.00" routeLength="2893.05" waitingTime="1740.00" waitingCount="17" stopTime="0.00" timeLoss="1814.17" rerouteNo="8" devices="vehroute_flow_11803573687.24 tripinfo_flow_11803573687.24 routing_flow_11803573687.24 emissions_flow_11803573687.24" vType="car" speedFactor="0.89" vaporized="teleport">
        <emissions CO_abs="300907.768342" CO2_abs="5323389.811274" HC_abs="1494.867861" PMx_abs="126.831165" NOx_abs="2396.642111" fuel_abs="1698018.063733" electricity_abs="0"/>
    </tripinfo>
    <tripinfo id="flow_11803573687.29" depart="557.00" departLane="222427536#0_0" departPos="5.10" departSpeed="0.00" departDelay="497.00" arrival="3187.00" arrivalLane="-17242225_0" arrivalPos="41.66" arrivalSpeed="0.00" duration="2630.00" routeLength="2893.05" waitingTime="1697.00" waitingCount="16" stopTime="0.00" timeLoss="1791.96" rerouteNo="8" devices="vehroute_flow_11803573687.29 tripinfo_flow_11803573687.29 routing_flow_11803573687.29 emissions_flow_11803573687.29" vType="car" speedFactor="1.06" vaporized="teleport">
        <emissions CO_abs="296048.317336" CO2_abs="5244300.892769" HC_abs="1468.978072" PMx_abs="125.831523" NOx_abs="2365.956912" fuel_abs="1672789.343919" electricity_abs="0"/>
    </tripinfo>
    <tripinfo id="flow_10152091453.19" depart="484.00" departLane="429356220#0_0" departPos="5.10" departSpeed="0.00" departDelay="444.00" arrival="3236.00" arrivalLane="34474265#5_0" arrivalPos="124.62" arrivalSpeed="0.00" duration="2752.00" routeLength="1478.39" waitingTime="2567.00" waitingCount="13" stopTime="0.00" timeLoss="2629.19" rerouteNo="1" devices="vehroute_flow_10152091453.19 tripinfo_flow_10152091453.19 routing_flow_10152091453.19 emissions_flow_10152091453.19" vType="car" speedFactor="1.09" vaporized="teleport">
        <emissions CO_abs="434931.333950" CO2_abs="7286549.092120" HC_abs="2150.677560" PMx_abs="178.030649" NOx_abs="3310.976065" fuel_abs="2324222.426261" electricity_abs="0"/>
    </tripinfo>
    <tripinfo id="flow_4662964930.8" depart="868.00" departLane="41211484#1_0" departPos="5.10" departSpeed="0.00" departDelay="850.00" arrival="3288.00" arrivalLane="27774529#0_0" arrivalPos="264.75" arrivalSpeed="0.00" duration="2420.00" routeLength="3619.37" waitingTime="1961.00" waitingCount="21" stopTime="0.00" timeLoss="2085.36" rerouteNo="1" devices="vehroute_flow_4662964930.8 tripinfo_flow_4662964930.8 routing_flow_4662964930.8 emissions_flow_4662964930.8" vType="car" speedFactor="1.10" vaporized="teleport">
        <emissions CO_abs="358137.854437" CO2_abs="6594168.891238" HC_abs="1781.748359" PMx_abs="154.599414" NOx_abs="2950.054346" fuel_abs="2103355.630791" electricity_abs="0"/>
    </tripinfo>
    <tripinfo id="flow_10900394934.33" depart="888.00" departLane="24892132#0_0" departPos="5.10" departSpeed="0.00" departDelay="820.00" arrival="3295.00" arrivalLane="17343012#5_0" arrivalPos="117.81" arrivalSpeed="13.84" duration="2407.00" routeLength="4393.67" waitingTime="1131.00" waitingCount="30" stopTime="0.00" timeLoss="1276.87" rerouteNo="9" devices="vehroute_flow_10900394934.33 tripinfo_flow_10900394934.33 routing_flow_10900394934.33 emissions_flow_10900394934.33" vType="car" speedFactor="1.00" vaporized="">
        <emissions CO_abs="213478.127525" CO2_abs="4166677.508093" HC_abs="1066.855934" PMx_abs="92.906915" NOx_abs="1834.978142" fuel_abs="1329050.858806" electricity_abs="0"/>
    </tripinfo>
    <tripinfo id="flow_10152065052.45" depart="283.00" departLane="153950038#0_0" departPos="5.10" departSpeed="0.00" departDelay="191.00" arrival="3312.00" arrivalLane="25171322#8_0" arrivalPos="131.79" arrivalSpeed="0.00" duration="3029.00" routeLength="2127.79" waitingTime="2770.00" waitingCount="22" stopTime="0.00" timeLoss="2871.95" rerouteNo="1" devices="vehroute_flow_10152065052.45 tripinfo_flow_10152065052.45 routing_flow_10152065052.45 emissions_flow_10152065052.45" vType="car" speedFactor="1.08" vaporized="teleport">
        <emissions CO_abs="474614.944177" CO2_abs="8111026.109490" HC_abs="2350.206896" PMx_abs="197.873135" NOx_abs="3683.174941" fuel_abs="2587203.685958" electricity_abs="0"/>
    </tripinfo>
    <tripinfo id="flow_5006715813.2" depart="27.00" departLane="1080571755#0_0" departPos="5.10" departSpeed="0.00" departDelay="21.00" arrival="3401.00" arrivalLane="-17242225_0" arrivalPos="41.66" arrivalSpeed="0.00" duration="3374.00" routeLength="166.04" waitingTime="3294.00" waitingCount="11" stopTime="0.00" timeLoss="3318.15" rerouteNo="0" devices="vehroute_flow_5006715813.2 tripinfo_flow_5006715813.2 routing_flow_5006715813.2 emissions_flow_5006715813.2" vType="car" speedFactor="1.08" vaporized="teleport">
        <emissions CO_abs="547799.342080" CO2_abs="8784316.378161" HC_abs="2700.662663" PMx_abs="220.274750" NOx_abs="4028.358477" fuel_abs="2801980.374494" electricity_abs="0"/>
    </tripinfo>