<?xml version="1.0" encoding="UTF-8"?>

<!-- generated on 2024-07-18 17:53:05 by Eclipse SUMO sumo Version 1.18.0
<configuration xmlns:xsi="http://www.w3.org/2001/XMLSchema-instance" xsi:noNamespaceSchemaLocation="http://sumo.dlr.de/xsd/sumoConfiguration.xsd">

    <input>
        <net-file value="osm.net.xml"/>
        <route-files value="flow.rou.xml"/>
        <additional-files value="osm.poly.xml.gz,parkings.add.xml,parking.rerouter.add.xml,parking_config.add.xml"/>
    </input>

    <output>
        <emission-output value="output/emissions.xml"/>
        <summary-output value="output/summary.xml"/>
        <tripinfo-output value="output/tripinfos.xml"/>
        <stop-output value="output/stopinfo.xml"/>
        <statistic-output value="output/statistics.xml"/>
    </output>

    <processing>
        <ignore-route-errors value="true"/>
    </processing>

    <routing>
        <device.rerouting.adaptation-steps value="18"/>
        <device.rerouting.adaptation-interval value="10"/>
    </routing>

    <report>
        <verbose value="true"/>
        <duration-log.statistics value="true"/>
        <no-step-log value="true"/>
    </report>

    <gui_only>
        <gui-settings-file value="sim.view.xml"/>
    </gui_only>

</configuration>
-->

<tripinfos xmlns:xsi="http://www.w3.org/2001/XMLSchema-instance" xsi:noNamespaceSchemaLocation="http://sumo.dlr.de/xsd/tripinfo_file.xsd">
    <tripinfo id="flow_10152065052.18" depart="180.00" departLane="153950038#0_0" departPos="5.10" departSpeed="0.00" departDelay="142.00" arrival="1023.00" arrivalLane="25171322#8_0" arrivalPos="131.79" arrivalSpeed="0.00" duration="843.00" routeLength="2127.79" waitingTime="438.00" waitingCount="12" stopTime="0.00" timeLoss="579.42" rerouteNo="1" devices="tripinfo_flow_10152065052.18 routing_flow_10152065052.18 emissions_flow_10152065052.18" vType="car" speedFactor="0.64" vaporized="teleport">
        <emissions CO_abs="105047.034550" CO2_abs="2100746.407794" HC_abs="526.787989" PMx_abs="44.357716" NOx_abs="913.492860" fuel_abs="670078.968239" electricity_abs="0"/>
    </tripinfo>
    <tripinfo id="flow_10152091453.10" depart="257.00" departLane="429356220#0_0" departPos="5.10" departSpeed="0.00" departDelay="235.00" arrival="1137.00" arrivalLane="34474265#5_0" arrivalPos="124.62" arrivalSpeed="0.00" duration="880.00" routeLength="1478.39" waitingTime="430.00" waitingCount="5" stopTime="0.00" timeLoss="435.90" rerouteNo="1" devices="tripinfo_flow_10152091453.10 routing_flow_10152091453.10 emissions_flow_10152091453.10" vType="car" speedFactor="0.30" vaporized="teleport">
        <emissions CO_abs="118662.971380" CO2_abs="2168404.437121" HC_abs="590.278567" PMx_abs="47.252408" NOx_abs="955.034471" fuel_abs="691664.605127" electricity_abs="0"/>
    </tripinfo>
    <tripinfo id="flow_10152065052.31" depart="300.00" departLane="153950038#0_0" departPos="5.10" departSpeed="0.00" departDelay="236.00" arrival="1327.00" arrivalLane="25171322#8_0" arrivalPos="131.79" arrivalSpeed="0.00" duration="1027.00" routeLength="2127.79" waitingTime="738.00" waitingCount="16" stopTime="0.00" timeLoss="883.80" rerouteNo="1" devices="tripinfo_flow_10152065052.31 routing_flow_10152065052.31 emissions_flow_10152065052.31" vType="car" speedFactor="1.19" vaporized="teleport">
        <emissions CO_abs="144556.595918" CO2_abs="2812160.183145" HC_abs="721.554233" PMx_abs="64.383005" NOx_abs="1247.582112" fuel_abs="896996.982618" electricity_abs="0"/>
    </tripinfo>
    <tripinfo id="flow_10152091453.19" depart="499.00" departLane="429356220#0_0" departPos="5.10" departSpeed="0.00" departDelay="459.00" arrival="1446.00" arrivalLane="34474265#5_0" arrivalPos="124.62" arrivalSpeed="0.00" duration="947.00" routeLength="1467.39" waitingTime="662.00" waitingCount="7" stopTime="0.00" timeLoss="871.15" rerouteNo="1" devices="tripinfo_flow_10152091453.19 routing_flow_10152091453.19 emissions_flow_10152091453.19" vType="car" speedFactor="1.66" vaporized="teleport">
        <emissions CO_abs="133152.660905" CO2_abs="2417772.119358" HC_abs="662.464860" PMx_abs="54.929327" NOx_abs="1075.605648" fuel_abs="771204.691264" electricity_abs="0"/>
    </tripinfo>
    <tripinfo id="flow_10152091453.12" depart="286.00" departLane="429356220#0_0" departPos="5.10" departSpeed="0.00" departDelay="260.00" arrival="1447.00" arrivalLane="34474265#5_0" arrivalPos="124.62" arrivalSpeed="0.00" duration="1161.00" routeLength="1478.39" waitingTime="768.00" waitingCount="7" stopTime="0.00" timeLoss="1070.42" rerouteNo="1" devices="tripinfo_flow_10152091453.12 routing_flow_10152091453.12 emissions_flow_10152091453.12" vType="car" speedFactor="1.48" vaporized="teleport">
        <emissions CO_abs="168775.947067" CO2_abs="3015391.982397" HC_abs="838.512389" PMx_abs="69.704359" NOx_abs="1348.710596" fuel_abs="961829.830298" electricity_abs="0"/>
    </tripinfo>
    <tripinfo id="flow_10152065052.37" depart="370.00" departLane="153950038#0_0" departPos="5.10" departSpeed="0.00" departDelay="294.00" arrival="1631.00" arrivalLane="25171322#8_0" arrivalPos="131.79" arrivalSpeed="0.00" duration="1261.00" routeLength="2127.79" waitingTime="958.00" waitingCount="11" stopTime="0.00" timeLoss="1123.14" rerouteNo="1" devices="tripinfo_flow_10152065052.37 routing_flow_10152065052.37 emissions_flow_10152065052.37" vType="car" speedFactor="1.23" vaporized="teleport">
        <emissions CO_abs="183577.215061" CO2_abs="3380703.849931" HC_abs="912.164096" PMx_abs="79.055294" NOx_abs="1509.730184" fuel_abs="1078350.231331" electricity_abs="0"/>
    </tripinfo>
    <tripinfo id="flow_10152091453.21" depart="568.00" departLane="429356220#0_0" departPos="5.10" departSpeed="0.00" departDelay="524.00" arrival="1752.00" arrivalLane="34474265#5_0" arrivalPos="124.62" arrivalSpeed="0.00" duration="1184.00" routeLength="1467.39" waitingTime="962.00" waitingCount="8" stopTime="0.00" timeLoss="1031.03" rerouteNo="1" devices="tripinfo_flow_10152091453.21 routing_flow_10152091453.21 emissions_flow_10152091453.21" vType="car" speedFactor="0.82" vaporized="teleport">
        <emissions CO_abs="172884.527034" CO2_abs="3035014.350003" HC_abs="857.935714" PMx_abs="70.798124" NOx_abs="1359.780308" fuel_abs="968090.199750" electricity_abs="0"/>
    </tripinfo>
    <tripinfo id="flow_10152091453.13" depart="381.00" departLane="429356220#0_0" departPos="5.10" departSpeed="0.00" departDelay="353.00" arrival="1753.00" arrivalLane="34474265#5_0" arrivalPos="124.62" arrivalSpeed="0.00" duration="1372.00" routeLength="1478.39" waitingTime="979.00" waitingCount="9" stopTime="0.00" timeLoss="1269.34" rerouteNo="1" devices="tripinfo_flow_10152091453.13 routing_flow_10152091453.13 emissions_flow_10152091453.13" vType="car" speedFactor="1.30" vaporized="teleport">
        <emissions CO_abs="202648.122744" CO2_abs="3546454.367445" HC_abs="1004.900613" PMx_abs="83.056815" NOx_abs="1592.475050" fuel_abs="1131226.035994" electricity_abs="0"/>
    </tripinfo>
    <tripinfo id="flow_10152065052.23" depart="229.00" departLane="153950038#0_0" departPos="5.10" departSpeed="0.00" departDelay="181.00" arrival="1935.00" arrivalLane="25171322#8_0" arrivalPos="131.79" arrivalSpeed="0.00" duration="1706.00" routeLength="2127.79" waitingTime="1302.00" waitingCount="18" stopTime="0.00" timeLoss="1382.46" rerouteNo="1" devices="tripinfo_flow_10152065052.23 routing_flow_10152065052.23 emissions_flow_10152065052.23" vType="car" speedFactor="0.52" vaporized="teleport">
        <emissions CO_abs="245526.178774" CO2_abs="4334950.270757" HC_abs="1218.817349" PMx_abs="100.106539" NOx_abs="1937.192039" fuel_abs="1382735.896951" electricity_abs="0"/>
    </tripinfo>
    <tripinfo id="flow_10152091453.14" depart="393.00" departLane="429356220#0_0" departPos="5.10" departSpeed="0.00" departDelay="363.00" arrival="2057.00" arrivalLane="34474265#5_0" arrivalPos="124.62" arrivalSpeed="0.00" duration="1664.00" routeLength="1478.39" waitingTime="1290.00" waitingCount="11" stopTime="0.00" timeLoss="1566.78" rerouteNo="1" devices="tripinfo_flow_10152091453.14 routing_flow_10152091453.14 emissions_flow_10152091453.14" vType="car" speedFactor="1.38" vaporized="teleport">
        <emissions CO_abs="251144.429513" CO2_abs="4332319.997672" HC_abs="1244.175788" PMx_abs="102.897726" NOx_abs="1953.663171" fuel_abs="1381897.320385" electricity_abs="0"/>
    </tripinfo>
    <tripinfo id="flow_3891079338.15" depart="1175.00" departLane="24892132#0_0" departPos="5.10" departSpeed="0.00" departDelay="1143.00" arrival="2233.00" arrivalLane="-27774100#4_0" arrivalPos="237.63" arrivalSpeed="0.00" duration="1058.00" routeLength="1951.40" waitingTime="477.00" waitingCount="6" stopTime="0.00" timeLoss="805.28" rerouteNo="2" devices="tripinfo_flow_3891079338.15 routing_flow_3891079338.15 emissions_flow_3891079338.15" vType="car" speedFactor="0.78" vaporized="teleport">
        <emissions CO_abs="140132.428262" CO2_abs="2593719.801506" HC_abs="698.121724" PMx_abs="57.516549" NOx_abs="1146.280923" fuel_abs="827327.060737" electricity_abs="0"/>
    </tripinfo>
    <tripinfo id="flow_10152065052.30" depart="291.00" departLane="153950038#0_0" departPos="5.10" departSpeed="0.00" departDelay="229.00" arrival="2239.00" arrivalLane="25171322#8_0" arrivalPos="131.79" arrivalSpeed="0.00" duration="1948.00" routeLength="2127.79" waitingTime="1639.00" waitingCount="21" stopTime="0.00" timeLoss="1831.73" rerouteNo="1" devices="tripinfo_flow_10152065052.30 routing_flow_10152065052.30 emissions_flow_10152065052.30" vType="car" speedFactor="1.46" vaporized="teleport">
        <emissions CO_abs="295347.850061" CO2_abs="5208957.992894" HC_abs="1466.209642" PMx_abs="124.768740" NOx_abs="2349.341068" fuel_abs="1661517.109519" electricity_abs="0"/>
    </tripinfo>
    <tripinfo id="flow_9217552165.3" depart="168.00" departLane="41211484#1_0" departPos="5.10" departSpeed="0.00" departDelay="160.00" arrival="2330.00" arrivalLane="397118977#0_0" arrivalPos="181.24" arrivalSpeed="2.61" duration="2162.00" routeLength="4718.25" waitingTime="872.00" waitingCount="16" stopTime="0.00" timeLoss="1434.73" rerouteNo="2" devices="tripinfo_flow_9217552165.3 routing_flow_9217552165.3 emissions_flow_9217552165.3" vType="car" speedFactor="0.94" vaporized="">
        <emissions CO_abs="285601.860959" CO2_abs="5565870.549227" HC_abs="1428.634292" PMx_abs="121.751592" NOx_abs="2443.386107" fuel_abs="1775356.057395" electricity_abs="0"/>
    </tripinfo>
    <tripinfo id="flow_698825602.3" depart="143.00" departLane="41211484#1_0" departPos="5.10" departSpeed="0.00" departDelay="135.00" arrival="2355.00" arrivalLane="47372949#0_0" arrivalPos="144.56" arrivalSpeed="5.57" duration="2212.00" routeLength="6682.49" waitingTime="913.00" waitingCount="17" stopTime="0.00" timeLoss="1283.80" rerouteNo="9" devices="tripinfo_flow_698825602.3 routing_flow_698825602.3 emissions_flow_698825602.3" vType="car" speedFactor="0.85" vaporized="">
        <emissions CO_abs="243491.040567" CO2_abs="5159324.137305" HC_abs="1227.632451" PMx_abs="105.970002" NOx_abs="2220.956390" fuel_abs="1645673.585700" electricity_abs="0"/>
    </tripinfo>
    <tripinfo id="flow_10152091453.17" depart="479.00" departLane="429356220#0_0" departPos="5.10" departSpeed="0.00" departDelay="443.00" arrival="2361.00" arrivalLane="34474265#5_0" arrivalPos="124.62" arrivalSpeed="0.00" duration="1882.00" routeLength="1478.39" waitingTime="1590.00" waitingCount="12" stopTime="0.00" timeLoss="1788.11" rerouteNo="1" devices="tripinfo_flow_10152091453.17 routing_flow_10152091453.17 emissions_flow_10152091453.17" vType="car" speedFactor="1.43" vaporized="teleport">
        <emissions CO_abs="288394.076649" CO2_abs="4923074.786996" HC_abs="1428.347022" PMx_abs="118.414486" NOx_abs="2227.301400" fuel_abs="1570333.213914" electricity_abs="0"/>
    </tripinfo>
    <tripinfo id="flow_3695729527.19" depart="231.00" departLane="90042841#0_0" departPos="5.10" departSpeed="0.00" departDelay="191.00" arrival="2543.00" arrivalLane="-828798886_0" arrivalPos="57.99" arrivalSpeed="5.13" duration="2312.00" routeLength="3999.33" waitingTime="954.00" waitingCount="35" stopTime="0.00" timeLoss="1335.25" rerouteNo="49" devices="tripinfo_flow_3695729527.19 routing_flow_3695729527.19 emissions_flow_3695729527.19" vType="car" speedFactor="0.62" vaporized="">
        <emissions CO_abs="239496.899023" CO2_abs="4600200.606311" HC_abs="1196.990871" PMx_abs="100.467277" NOx_abs="2023.290817" fuel_abs="1467336.621542" electricity_abs="0"/>
    </tripinfo>
    <tripinfo id="flow_10152065052.35" depart="351.00" departLane="153950038#0_0" departPos="5.10" departSpeed="0.00" departDelay="279.00" arrival="2543.00" arrivalLane="25171322#8_0" arrivalPos="131.79" arrivalSpeed="0.00" duration="2192.00" routeLength="2127.79" waitingTime="1865.00" waitingCount="13" stopTime="0.00" timeLoss="2046.56" rerouteNo="1" devices="tripinfo_flow_10152065052.35 routing_flow_10152065052.35 emissions_flow_10152065052.35" vType="car" speedFactor="1.17" vaporized="teleport">
        <emissions CO_abs="334386.657518" CO2_abs="5743625.356756" HC_abs="1654.067171" PMx_abs="137.619890" NOx_abs="2589.009367" fuel_abs="1832066.897925" electricity_abs="0"/>
    </tripinfo>
    <tripinfo id="flow_4839983111.14" depart="405.00" departLane="38261112#2_0" departPos="5.10" departSpeed="0.00" departDelay="375.00" arrival="2555.00" arrivalLane="542662636_0" arrivalPos="72.80" arrivalSpeed="23.79" duration="2150.00" routeLength="7295.22" waitingTime="852.00" waitingCount="34" stopTime="0.00" timeLoss="1503.84" rerouteNo="13" devices="tripinfo_flow_4839983111.14 routing_flow_4839983111.14 emissions_flow_4839983111.14" vType="car" speedFactor="1.71" vaporized="">
        <emissions CO_abs="216862.339092" CO2_abs="5152228.779349" HC_abs="1106.787715" PMx_abs="109.007374" NOx_abs="2235.700369" fuel_abs="1643390.151768" electricity_abs="0"/>
    </tripinfo>
    <tripinfo id="flow_4839983111.27" depart="744.00" departLane="38261112#2_0" departPos="5.10" departSpeed="0.00" departDelay="688.00" arrival="2560.00" arrivalLane="542662636_0" arrivalPos="72.80" arrivalSpeed="15.46" duration="1816.00" routeLength="5418.48" waitingTime="742.00" waitingCount="21" stopTime="0.00" timeLoss="1132.35" rerouteNo="8" devices="tripinfo_flow_4839983111.27 routing_flow_4839983111.27 emissions_flow_4839983111.27" vType="car" speedFactor="1.11" vaporized="">
        <emissions CO_abs="185408.346520" CO2_abs="4113288.844890" HC_abs="935.837248" PMx_abs="86.428333" NOx_abs="1779.411952" fuel_abs="1312010.910031" electricity_abs="0"/>
    </tripinfo>
    <tripinfo id="flow_3891079338.20" depart="1298.00" departLane="24892132#0_0" departPos="5.10" departSpeed="0.00" departDelay="1256.00" arrival="2561.00" arrivalLane="-27774100#4_0" arrivalPos="237.63" arrivalSpeed="0.00" duration="1263.00" routeLength="2306.36" waitingTime="743.00" waitingCount="7" stopTime="0.00" timeLoss="1124.79" rerouteNo="3" devices="tripinfo_flow_3891079338.20 routing_flow_3891079338.20 emissions_flow_3891079338.20" vType="car" speedFactor="1.72" vaporized="teleport">
        <emissions CO_abs="179208.392561" CO2_abs="3380857.084419" HC_abs="894.765759" PMx_abs="77.910486" NOx_abs="1506.529220" fuel_abs="1078397.694420" electricity_abs="0"/>
    </tripinfo>
    <tripinfo id="flow_2711712831.41" depart="649.00" departLane="222427536#0_0" departPos="5.10" departSpeed="0.00" departDelay="565.00" arrival="2588.00" arrivalLane="22329473_0" arrivalPos="100.23" arrivalSpeed="7.12" duration="1939.00" routeLength="5950.14" waitingTime="796.00" waitingCount="30" stopTime="0.00" timeLoss="1392.47" rerouteNo="13" devices="tripinfo_flow_2711712831.41 routing_flow_2711712831.41 emissions_flow_2711712831.41" vType="car" speedFactor="1.89" vaporized="">
        <emissions CO_abs="201529.378217" CO2_abs="4603386.815199" HC_abs="1024.675144" PMx_abs="99.386675" NOx_abs="2010.173692" fuel_abs="1468330.447246" electricity_abs="0"/>
    </tripinfo>
    <tripinfo id="flow_9217552165.2" depart="113.00" departLane="41211484#1_0" departPos="5.10" departSpeed="0.00" departDelay="107.00" arrival="2616.00" arrivalLane="397118977#0_0" arrivalPos="181.24" arrivalSpeed="1.97" duration="2503.00" routeLength="4723.29" waitingTime="1301.00" waitingCount="17" stopTime="0.00" timeLoss="1542.54" rerouteNo="2" devices="tripinfo_flow_9217552165.2 routing_flow_9217552165.2 emissions_flow_9217552165.2" vType="car" speedFactor="0.71" vaporized="">
        <emissions CO_abs="336680.328409" CO2_abs="6317480.701803" HC_abs="1679.298172" PMx_abs="139.050437" NOx_abs="2780.452295" fuel_abs="2015105.534584" electricity_abs="0"/>
    </tripinfo>
    <tripinfo id="flow_10152091453.15" depart="403.00" departLane="429356220#0_0" departPos="5.10" departSpeed="0.00" departDelay="371.00" arrival="2665.00" arrivalLane="34474265#5_0" arrivalPos="124.62" arrivalSpeed="0.00" duration="2262.00" routeLength="1478.39" waitingTime="1938.00" waitingCount="12" stopTime="0.00" timeLoss="1995.82" rerouteNo="1" devices="tripinfo_flow_10152091453.15 routing_flow_10152091453.15 emissions_flow_10152091453.15" vType="car" speedFactor="0.50" vaporized="teleport">
        <emissions CO_abs="347249.918806" CO2_abs="5831757.184164" HC_abs="1717.349091" PMx_abs="139.921194" NOx_abs="2638.106589" fuel_abs="1860183.157099" electricity_abs="0"/>
    </tripinfo>
    <tripinfo id="flow_3891079338.16" depart="1198.00" departLane="24892132#0_0" departPos="5.10" departSpeed="0.00" departDelay="1164.00" arrival="2774.00" arrivalLane="-27774100#4_0" arrivalPos="237.63" arrivalSpeed="0.10" duration="1576.00" routeLength="2322.93" waitingTime="881.00" waitingCount="6" stopTime="0.00" timeLoss="1143.17" rerouteNo="3" devices="tripinfo_flow_3891079338.16 routing_flow_3891079338.16 emissions_flow_3891079338.16" vType="car" speedFactor="1.06" vaporized="teleport">
        <emissions CO_abs="190084.812078" CO2_abs="3471315.341070" HC_abs="944.488421" PMx_abs="78.994941" NOx_abs="1540.488366" fuel_abs="1107256.083670" electricity_abs="0"/>
    </tripinfo>
    <tripinfo id="flow_9217552163.45" depart="681.00" departLane="216862003#0_0" departPos="5.10" departSpeed="0.00" departDelay="589.00" arrival="2809.00" arrivalLane="397118977#0_0" arrivalPos="181.24" arrivalSpeed="3.79" duration="2128.00" routeLength="4549.78" waitingTime="1277.00" waitingCount="25" stopTime="0.00" timeLoss="1662.35" rerouteNo="3" devices="tripinfo_flow_9217552163.45 routing_flow_9217552163.45 emissions_flow_9217552163.45" vType="car" speedFactor="1.36" vaporized="">
        <emissions CO_abs="293865.862406" CO2_abs="5769550.816148" HC_abs="1469.970456" PMx_abs="129.966790" NOx_abs="2546.794118" fuel_abs="1840319.194482" electricity_abs="0"/>
    </tripinfo>
    <tripinfo id="flow_10152065052.32" depart="309.00" departLane="153950038#0_0" departPos="5.10" departSpeed="0.00" departDelay="243.00" arrival="2847.00" arrivalLane="25171322#8_0" arrivalPos="131.79" arrivalSpeed="0.00" duration="2538.00" routeLength="2127.79" waitingTime="2236.00" waitingCount="22" stopTime="0.00" timeLoss="2394.16" rerouteNo="1" devices="tripinfo_flow_10152065052.32 routing_flow_10152065052.32 emissions_flow_10152065052.32" vType="car" speedFactor="1.18" vaporized="teleport">
        <emissions CO_abs="392052.015129" CO2_abs="6757073.319076" HC_abs="1941.648475" PMx_abs="163.368114" NOx_abs="3057.984482" fuel_abs="2155327.903608" electricity_abs="0"/>
    </tripinfo>
    <tripinfo id="flow_2634087847.40" depart="152.00" departLane="771368477#0_0" departPos="5.10" departSpeed="0.00" departDelay="70.00" arrival="2870.00" arrivalLane="542662641#1_0" arrivalPos="90.33" arrivalSpeed="5.24" duration="2718.00" routeLength="5502.35" waitingTime="899.00" waitingCount="20" stopTime="0.00" timeLoss="1027.13" rerouteNo="8" devices="tripinfo_flow_2634087847.40 routing_flow_2634087847.40 emissions_flow_2634087847.40" vType="car" speedFactor="0.38" vaporized="">
        <emissions CO_abs="276946.741889" CO2_abs="5418798.460056" HC_abs="1385.190567" PMx_abs="111.606045" NOx_abs="2348.203758" fuel_abs="1728450.379361" electricity_abs="0"/>
    </tripinfo>
    <tripinfo id="flow_3695729527.24" depart="278.00" departLane="90042841#0_0" departPos="5.10" departSpeed="0.00" departDelay="228.00" arrival="2872.00" arrivalLane="-828798886_0" arrivalPos="57.99" arrivalSpeed="7.69" duration="2594.00" routeLength="3999.33" waitingTime="1328.00" waitingCount="45" stopTime="0.00" timeLoss="1842.64" rerouteNo="49" devices="tripinfo_flow_3695729527.24 routing_flow_3695729527.24 emissions_flow_3695729527.24" vType="car" speedFactor="1.13" vaporized="">
        <emissions CO_abs="294088.042845" CO2_abs="5593883.213216" HC_abs="1468.747865" PMx_abs="128.471980" NOx_abs="2495.695721" fuel_abs="1784288.791637" electricity_abs="0"/>
    </tripinfo>
    <tripinfo id="flow_4839983111.34" depart="894.00" departLane="38261112#2_0" departPos="5.10" departSpeed="0.00" departDelay="824.00" arrival="2895.00" arrivalLane="542662636_2" arrivalPos="72.80" arrivalSpeed="26.25" duration="2001.00" routeLength="5746.87" waitingTime="991.00" waitingCount="25" stopTime="0.00" timeLoss="1479.35" rerouteNo="10" devices="tripinfo_flow_4839983111.34 routing_flow_4839983111.34 emissions_flow_4839983111.34" vType="car" speedFactor="1.89" vaporized="">
        <emissions CO_abs="223319.777588" CO2_abs="4918674.429474" HC_abs="1131.093500" PMx_abs="108.353480" NOx_abs="2155.494328" fuel_abs="1568900.035037" electricity_abs="0"/>
    </tripinfo>
    <tripinfo id="flow_4839983111.30" depart="815.00" departLane="38261112#2_0" departPos="5.10" departSpeed="0.00" departDelay="753.00" arrival="2903.00" arrivalLane="542662636_0" arrivalPos="72.80" arrivalSpeed="7.54" duration="2088.00" routeLength="7941.49" waitingTime="724.00" waitingCount="18" stopTime="0.00" timeLoss="1074.80" rerouteNo="15" devices="tripinfo_flow_4839983111.30 routing_flow_4839983111.30 emissions_flow_4839983111.30" vType="car" speedFactor="0.91" vaporized="">
        <emissions CO_abs="194418.835700" CO2_abs="4720165.360302" HC_abs="993.763118" PMx_abs="90.934747" NOx_abs="1990.272624" fuel_abs="1505583.798659" electricity_abs="0"/>
    </tripinfo>
    <tripinfo id="flow_6489283863.14" depart="377.00" departLane="30133975#0_0" departPos="5.10" departSpeed="0.00" departDelay="347.00" arrival="2915.00" arrivalLane="54356028#1_0" arrivalPos="65.41" arrivalSpeed="7.80" duration="2538.00" routeLength="5007.10" waitingTime="882.00" waitingCount="17" stopTime="0.00" timeLoss="1763.13" rerouteNo="9" devices="tripinfo_flow_6489283863.14 routing_flow_6489283863.14 emissions_flow_6489283863.14" vType="car" speedFactor="1.55" vaporized="">
        <emissions CO_abs="264596.306240" CO2_abs="5285213.955466" HC_abs="1327.115537" PMx_abs="114.554688" NOx_abs="2320.514313" fuel_abs="1685831.053494" electricity_abs="0"/>
    </tripinfo>
    <tripinfo id="flow_10152091453.16" depart="468.00" departLane="429356220#0_0" departPos="5.10" departSpeed="0.00" departDelay="434.00" arrival="2969.00" arrivalLane="34474265#5_0" arrivalPos="124.62" arrivalSpeed="0.00" duration="2501.00" routeLength="1478.39" waitingTime="2181.00" waitingCount="12" stopTime="0.00" timeLoss="2407.22" rerouteNo="1" devices="tripinfo_flow_10152091453.16 routing_flow_10152091453.16 emissions_flow_10152091453.16" vType="car" speedFactor="1.43" vaporized="teleport">
        <emissions CO_abs="388027.442451" CO2_abs="6511689.646377" HC_abs="1919.142000" PMx_abs="157.465580" NOx_abs="2952.952359" fuel_abs="2077063.271440" electricity_abs="0"/>
    </tripinfo>
    <tripinfo id="flow_4839983111.38" depart="976.00" departLane="38261112#2_0" departPos="5.10" departSpeed="0.00" departDelay="898.00" arrival="2982.00" arrivalLane="542662636_0" arrivalPos="72.80" arrivalSpeed="14.60" duration="2006.00" routeLength="4954.41" waitingTime="765.00" waitingCount="18" stopTime="0.00" timeLoss="1233.89" rerouteNo="7" devices="tripinfo_flow_4839983111.38 routing_flow_4839983111.38 emissions_flow_4839983111.38" vType="car" speedFactor="1.05" vaporized="">
        <emissions CO_abs="205591.602922" CO2_abs="4244477.338912" HC_abs="1030.822334" PMx_abs="90.491825" NOx_abs="1844.297714" fuel_abs="1353863.603869" electricity_abs="0"/>
    </tripinfo>
    <tripinfo id="flow_2711712831.42" depart="652.00" departLane="222427536#0_0" departPos="5.10" departSpeed="0.00" departDelay="566.00" arrival="3034.00" arrivalLane="22329473_0" arrivalPos="100.23" arrivalSpeed="5.36" duration="2382.00" routeLength="4638.77" waitingTime="1069.00" waitingCount="22" stopTime="0.00" timeLoss="1551.55" rerouteNo="54" devices="tripinfo_flow_2711712831.42 routing_flow_2711712831.42 emissions_flow_2711712831.42" vType="car" speedFactor="1.09" vaporized="">
        <emissions CO_abs="252248.426234" CO2_abs="5012013.815555" HC_abs="1262.170542" PMx_abs="111.376061" NOx_abs="2208.630477" fuel_abs="1598686.124248" electricity_abs="0"/>
    </tripinfo>
    <tripinfo id="flow_4839983111.23" depart="629.00" departLane="38261112#2_0" departPos="5.10" departSpeed="0.00" departDelay="581.00" arrival="3068.00" arrivalLane="542662636_0" arrivalPos="72.80" arrivalSpeed="11.00" duration="2439.00" routeLength="5013.06" waitingTime="996.00" waitingCount="13" stopTime="0.00" timeLoss="1437.76" rerouteNo="7" devices="tripinfo_flow_4839983111.23 routing_flow_4839983111.23 emissions_flow_4839983111.23" vType="car" speedFactor="0.79" vaporized="">
        <emissions CO_abs="247062.151218" CO2_abs="4890380.323723" HC_abs="1237.881420" PMx_abs="104.086507" NOx_abs="2131.714936" fuel_abs="1559894.339881" electricity_abs="0"/>
    </tripinfo>
    <tripinfo id="flow_316775573.6" depart="337.00" departLane="41211484#1_0" departPos="5.10" departSpeed="0.00" departDelay="323.00" arrival="3147.00" arrivalLane="-685270734_0" arrivalPos="41.77" arrivalSpeed="7.39" duration="2810.00" routeLength="4751.16" waitingTime="1695.00" waitingCount="18" stopTime="0.00" timeLoss="2040.28" rerouteNo="7" devices="tripinfo_flow_316775573.6 routing_flow_316775573.6 emissions_flow_316775573.6" vType="car" speedFactor="0.89" vaporized="">
        <emissions CO_abs="362012.639042" CO2_abs="6699469.107988" HC_abs="1804.422965" PMx_abs="152.869809" NOx_abs="2976.722742" fuel_abs="2136947.056785" electricity_abs="0"/>
    </tripinfo>
    <tripinfo id="flow_9217552165.4" depart="238.00" departLane="41211484#1_0" departPos="5.10" departSpeed="0.00" departDelay="228.00" arrival="3148.00" arrivalLane="397118977#0_0" arrivalPos="181.24" arrivalSpeed="2.88" duration="2910.00" routeLength="4612.99" waitingTime="1754.00" waitingCount="17" stopTime="0.00" timeLoss="2233.91" rerouteNo="3" devices="tripinfo_flow_9217552165.4 routing_flow_9217552165.4 emissions_flow_9217552165.4" vType="car" speedFactor="1.04" vaporized="">
        <emissions CO_abs="413163.934217" CO2_abs="7562990.087365" HC_abs="2055.175754" PMx_abs="172.975614" NOx_abs="3363.118722" fuel_abs="2412388.645580" electricity_abs="0"/>
    </tripinfo>
    <tripinfo id="flow_316775573.7" depart="806.00" departLane="41211484#1_0" departPos="5.10" departSpeed="0.00" departDelay="790.00" arrival="3150.00" arrivalLane="-685270734_0" arrivalPos="41.77" arrivalSpeed="8.04" duration="2344.00" routeLength="5074.03" waitingTime="1145.00" waitingCount="17" stopTime="0.00" timeLoss="1536.25" rerouteNo="8" devices="tripinfo_flow_316775573.7 routing_flow_316775573.7 emissions_flow_316775573.7" vType="car" speedFactor="0.96" vaporized="">
        <emissions CO_abs="275559.767446" CO2_abs="5398732.476226" HC_abs="1378.181978" PMx_abs="119.190971" NOx_abs="2371.839578" fuel_abs="1722041.783805" electricity_abs="0"/>
    </tripinfo>
    <tripinfo id="flow_10152065052.34" depart="342.00" departLane="153950038#0_0" departPos="5.10" departSpeed="0.00" departDelay="272.00" arrival="3151.00" arrivalLane="25171322#8_0" arrivalPos="131.79" arrivalSpeed="0.00" duration="2809.00" routeLength="2127.79" waitingTime="2461.00" waitingCount="15" stopTime="0.00" timeLoss="2641.23" rerouteNo="1" devices="tripinfo_flow_10152065052.34 routing_flow_10152065052.34 emissions_flow_10152065052.34" vType="car" speedFactor="1.01" vaporized="teleport">
        <emissions CO_abs="434415.333668" CO2_abs="7360220.220801" HC_abs="2148.455358" PMx_abs="177.929732" NOx_abs="3331.093726" fuel_abs="2347720.550388" electricity_abs="0"/>
    </tripinfo>
    <tripinfo id="flow_10152091453.18" depart="489.00" departLane="429356220#0_0" departPos="5.10" departSpeed="0.00" departDelay="451.00" arrival="3273.00" arrivalLane="34474265#5_0" arrivalPos="124.62" arrivalSpeed="0.00" duration="2784.00" routeLength="1478.39" waitingTime="2469.00" waitingCount="15" stopTime="0.00" timeLoss="2658.04" rerouteNo="1" devices="tripinfo_flow_10152091453.18 routing_flow_10152091453.18 emissions_flow_10152091453.18" vType="car" speedFactor="1.07" vaporized="teleport">
        <emissions CO_abs="434275.891462" CO2_abs="7236647.054680" HC_abs="2146.521910" PMx_abs="175.921610" NOx_abs="3286.534100" fuel_abs="2308307.172364" electricity_abs="0"/>
    </tripinfo>
    <tripinfo id="flow_316775573.10" depart="1093.00" departLane="41211484#1_0" departPos="5.10" departSpeed="0.00" departDelay="1071.00" arrival="3356.00" arrivalLane="-685270734_0" arrivalPos="41.77" arrivalSpeed="13.58" duration="2263.00" routeLength="5820.86" waitingTime="698.00" waitingCount="19" stopTime="0.00" timeLoss="1507.98" rerouteNo="11" devices="tripinfo_flow_316775573.10 routing_flow_316775573.10 emissions_flow_316775573.10" vType="car" speedFactor="1.63" vaporized="">
        <emissions CO_abs="242552.860995" CO2_abs="5203702.173842" HC_abs="1225.519669" PMx_abs="114.250446" NOx_abs="2279.037277" fuel_abs="1659819.189443" electricity_abs="0"/>
    </tripinfo>