<?xml version="1.0" encoding="UTF-8"?>

<!-- generated on 2024-07-26 02:16:23 by Eclipse SUMO sumo Version 1.18.0
<configuration xmlns:xsi="http://www.w3.org/2001/XMLSchema-instance" xsi:noNamespaceSchemaLocation="http://sumo.dlr.de/xsd/sumoConfiguration.xsd">

    <input>
        <net-file value="../osm.net.xml"/>
        <route-files value="../flow.rou.xml"/>
        <additional-files value="../osm.poly.xml.gz,../parkings.add.xml,parking.rerouter.add.xml,parking_config.add.xml"/>
    </input>

    <output>
        <emission-output value="output/emissions.xml"/>
        <summary-output value="output/summary.xml"/>
        <tripinfo-output value="output/tripinfos.xml"/>
        <vehroute-output value="output/vehroutes.xml"/>
        <stop-output value="output/stopinfo.xml"/>
        <statistic-output value="output/statistics.xml"/>
    </output>

    <processing>
        <ignore-route-errors value="true"/>
    </processing>

    <routing>
        <device.rerouting.adaptation-steps value="18"/>
        <device.rerouting.adaptation-interval value="10"/>
    </routing>

    <report>
        <verbose value="true"/>
        <duration-log.statistics value="true"/>
        <no-step-log value="true"/>
    </report>

    <gui_only>
        <gui-settings-file value="../sim.view.xml"/>
    </gui_only>

</configuration>
-->

<tripinfos xmlns:xsi="http://www.w3.org/2001/XMLSchema-instance" xsi:noNamespaceSchemaLocation="http://sumo.dlr.de/xsd/tripinfo_file.xsd">
    <tripinfo id="flow_10152091453.11" depart="344.00" departLane="429356220#0_0" departPos="5.10" departSpeed="0.00" departDelay="320.00" arrival="801.00" arrivalLane="34474265#5_0" arrivalPos="124.62" arrivalSpeed="0.00" duration="457.00" routeLength="1478.39" waitingTime="301.00" waitingCount="1" stopTime="0.00" timeLoss="333.30" rerouteNo="1" devices="vehroute_flow_10152091453.11 tripinfo_flow_10152091453.11 routing_flow_10152091453.11 emissions_flow_10152091453.11" vType="car" speedFactor="1.08" vaporized="teleport">
        <emissions CO_abs="57228.029448" CO2_abs="1249121.115226" HC_abs="288.951040" PMx_abs="26.695075" NOx_abs="542.159322" fuel_abs="398430.910325" electricity_abs="0"/>
    </tripinfo>
    <tripinfo id="flow_10152065052.25" depart="164.00" departLane="153950038#0_0" departPos="5.10" departSpeed="0.00" departDelay="112.00" arrival="880.00" arrivalLane="25171322#8_0" arrivalPos="131.79" arrivalSpeed="0.00" duration="716.00" routeLength="2127.79" waitingTime="513.00" waitingCount="11" stopTime="0.00" timeLoss="550.12" rerouteNo="1" devices="vehroute_flow_10152065052.25 tripinfo_flow_10152065052.25 routing_flow_10152065052.25 emissions_flow_10152065052.25" vType="car" speedFactor="1.02" vaporized="teleport">
        <emissions CO_abs="94649.895367" CO2_abs="1992158.094943" HC_abs="475.573079" PMx_abs="43.796908" NOx_abs="870.476076" fuel_abs="635437.501270" electricity_abs="0"/>
    </tripinfo>
    <tripinfo id="flow_10152091453.12" depart="357.00" departLane="429356220#0_0" departPos="5.10" departSpeed="0.00" departDelay="331.00" arrival="1105.00" arrivalLane="34474265#5_0" arrivalPos="124.62" arrivalSpeed="0.00" duration="748.00" routeLength="1478.39" waitingTime="595.00" waitingCount="4" stopTime="0.00" timeLoss="607.81" rerouteNo="1" devices="vehroute_flow_10152091453.12 tripinfo_flow_10152091453.12 routing_flow_10152091453.12 emissions_flow_10152091453.12" vType="car" speedFactor="0.95" vaporized="teleport">
        <emissions CO_abs="104473.680824" CO2_abs="1973223.548417" HC_abs="521.094450" PMx_abs="44.374521" NOx_abs="870.444536" fuel_abs="629403.693241" electricity_abs="0"/>
    </tripinfo>
    <tripinfo id="flow_10152065052.28" depart="179.00" departLane="153950038#0_0" departPos="5.10" departSpeed="0.00" departDelay="121.00" arrival="1184.00" arrivalLane="25171322#8_0" arrivalPos="131.79" arrivalSpeed="0.00" duration="1005.00" routeLength="2127.79" waitingTime="779.00" waitingCount="13" stopTime="0.00" timeLoss="830.48" rerouteNo="1" devices="vehroute_flow_10152065052.28 tripinfo_flow_10152065052.28 routing_flow_10152065052.28 emissions_flow_10152065052.28" vType="car" speedFactor="0.97" vaporized="teleport">
        <emissions CO_abs="140700.191797" CO2_abs="2742790.696201" HC_abs="703.658527" PMx_abs="62.454730" NOx_abs="1214.794781" fuel_abs="874870.522459" electricity_abs="0"/>
    </tripinfo>
    <tripinfo id="flow_6293583477.37" depart="630.00" departLane="38261112#2_0" departPos="5.10" departSpeed="0.00" departDelay="554.00" arrival="1404.00" arrivalLane="671575656_0" arrivalPos="130.85" arrivalSpeed="0.00" duration="774.00" routeLength="2296.10" waitingTime="356.00" waitingCount="6" stopTime="0.00" timeLoss="430.25" rerouteNo="3" devices="vehroute_flow_6293583477.37 tripinfo_flow_6293583477.37 routing_flow_6293583477.37 emissions_flow_6293583477.37" vType="car" speedFactor="1.02" vaporized="teleport">
        <emissions CO_abs="73354.601379" CO2_abs="1633097.453976" HC_abs="370.875446" PMx_abs="33.674395" NOx_abs="701.836226" fuel_abs="520907.858383" electricity_abs="0"/>
    </tripinfo>
    <tripinfo id="flow_10152091453.13" depart="369.00" departLane="429356220#0_0" departPos="5.10" departSpeed="0.00" departDelay="341.00" arrival="1409.00" arrivalLane="34474265#5_0" arrivalPos="124.62" arrivalSpeed="0.00" duration="1040.00" routeLength="1478.39" waitingTime="878.00" waitingCount="5" stopTime="0.00" timeLoss="900.57" rerouteNo="1" devices="vehroute_flow_10152091453.13 tripinfo_flow_10152091453.13 routing_flow_10152091453.13 emissions_flow_10152091453.13" vType="car" speedFactor="0.96" vaporized="teleport">
        <emissions CO_abs="152776.343355" CO2_abs="2763883.878293" HC_abs="759.756051" PMx_abs="64.343284" NOx_abs="1234.645320" fuel_abs="881604.012217" electricity_abs="0"/>
    </tripinfo>
    <tripinfo id="flow_10152065052.29" depart="184.00" departLane="153950038#0_0" departPos="5.10" departSpeed="0.00" departDelay="124.00" arrival="1488.00" arrivalLane="25171322#8_0" arrivalPos="131.79" arrivalSpeed="0.00" duration="1304.00" routeLength="2127.79" waitingTime="1078.00" waitingCount="15" stopTime="0.00" timeLoss="1138.09" rerouteNo="1" devices="vehroute_flow_10152065052.29 tripinfo_flow_10152065052.29 routing_flow_10152065052.29 emissions_flow_10152065052.29" vType="car" speedFactor="1.02" vaporized="teleport">
        <emissions CO_abs="190733.473775" CO2_abs="3545819.570078" HC_abs="950.272007" PMx_abs="82.848977" NOx_abs="1584.640490" fuel_abs="1131016.603176" electricity_abs="0"/>
    </tripinfo>
    <tripinfo id="flow_5570538880.32" depart="382.00" departLane="30133975#0_0" departPos="5.10" departSpeed="0.00" departDelay="316.00" arrival="1655.00" arrivalLane="671575656_0" arrivalPos="130.85" arrivalSpeed="0.00" duration="1273.00" routeLength="2225.71" waitingTime="707.00" waitingCount="16" stopTime="0.00" timeLoss="834.70" rerouteNo="91" devices="vehroute_flow_5570538880.32 tripinfo_flow_5570538880.32 routing_flow_5570538880.32 emissions_flow_5570538880.32" vType="car" speedFactor="1.13" vaporized="teleport">
        <emissions CO_abs="151033.994218" CO2_abs="2847551.049767" HC_abs="753.870125" PMx_abs="63.821477" NOx_abs="1261.704648" fuel_abs="908289.956725" electricity_abs="0"/>
    </tripinfo>
    <tripinfo id="flow_3891079338.18" depart="727.00" departLane="24892132#0_0" departPos="5.10" departSpeed="0.00" departDelay="689.00" arrival="1668.00" arrivalLane="-27774100#4_0" arrivalPos="237.63" arrivalSpeed="0.00" duration="941.00" routeLength="1951.40" waitingTime="668.00" waitingCount="10" stopTime="0.00" timeLoss="757.80" rerouteNo="2" devices="vehroute_flow_3891079338.18 tripinfo_flow_3891079338.18 routing_flow_3891079338.18 emissions_flow_3891079338.18" vType="car" speedFactor="1.09" vaporized="teleport">
        <emissions CO_abs="126048.022305" CO2_abs="2391802.920060" HC_abs="629.454875" PMx_abs="54.701281" NOx_abs="1064.532113" fuel_abs="762917.297899" electricity_abs="0"/>
    </tripinfo>
    <tripinfo id="flow_4839983111.21" depart="405.00" departLane="38261112#2_0" departPos="5.10" departSpeed="0.00" departDelay="361.00" arrival="1685.00" arrivalLane="542662636_0" arrivalPos="72.80" arrivalSpeed="13.36" duration="1280.00" routeLength="4966.44" waitingTime="562.00" waitingCount="16" stopTime="0.00" timeLoss="664.90" rerouteNo="11" devices="vehroute_flow_4839983111.21 tripinfo_flow_4839983111.21 routing_flow_4839983111.21 emissions_flow_4839983111.21" vType="car" speedFactor="0.96" vaporized="">
        <emissions CO_abs="119969.769126" CO2_abs="2974811.102607" HC_abs="613.429991" PMx_abs="59.907651" NOx_abs="1267.064670" fuel_abs="948866.347853" electricity_abs="0"/>
    </tripinfo>
    <tripinfo id="flow_6293583477.38" depart="643.00" departLane="38261112#2_0" departPos="5.10" departSpeed="0.00" departDelay="565.00" arrival="1710.00" arrivalLane="671575656_0" arrivalPos="130.85" arrivalSpeed="0.00" duration="1067.00" routeLength="2296.10" waitingTime="665.00" waitingCount="9" stopTime="0.00" timeLoss="711.53" rerouteNo="3" devices="vehroute_flow_6293583477.38 tripinfo_flow_6293583477.38 routing_flow_6293583477.38 emissions_flow_6293583477.38" vType="car" speedFactor="0.96" vaporized="teleport">
        <emissions CO_abs="122488.425639" CO2_abs="2410220.404538" HC_abs="612.804414" PMx_abs="52.772092" NOx_abs="1054.527633" fuel_abs="768791.887796" electricity_abs="0"/>
    </tripinfo>
    <tripinfo id="flow_10152091453.14" depart="382.00" departLane="429356220#0_0" departPos="5.10" departSpeed="0.00" departDelay="352.00" arrival="1713.00" arrivalLane="34474265#5_0" arrivalPos="124.62" arrivalSpeed="0.00" duration="1331.00" routeLength="1478.39" waitingTime="1142.00" waitingCount="5" stopTime="0.00" timeLoss="1160.19" rerouteNo="1" devices="vehroute_flow_10152091453.14 tripinfo_flow_10152091453.14 routing_flow_10152091453.14 emissions_flow_10152091453.14" vType="car" speedFactor="0.78" vaporized="teleport">
        <emissions CO_abs="198302.948880" CO2_abs="3460498.066673" HC_abs="983.712859" PMx_abs="81.391048" NOx_abs="1552.784311" fuel_abs="1103808.520471" electricity_abs="0"/>
    </tripinfo>
    <tripinfo id="flow_3891079340.33" depart="349.00" departLane="90042841#0_0" departPos="5.10" departSpeed="0.00" departDelay="281.00" arrival="1785.00" arrivalLane="-27774100#4_0" arrivalPos="237.63" arrivalSpeed="0.00" duration="1436.00" routeLength="5226.52" waitingTime="691.00" waitingCount="22" stopTime="0.00" timeLoss="805.62" rerouteNo="18" devices="vehroute_flow_3891079340.33 tripinfo_flow_3891079340.33 routing_flow_3891079340.33 emissions_flow_3891079340.33" vType="car" speedFactor="0.89" vaporized="teleport">
        <emissions CO_abs="144205.849739" CO2_abs="3396667.823740" HC_abs="735.185900" PMx_abs="68.412282" NOx_abs="1448.969595" fuel_abs="1083429.398692" electricity_abs="0"/>
    </tripinfo>
    <tripinfo id="flow_10152065052.32" depart="214.00" departLane="153950038#0_0" departPos="5.10" departSpeed="0.00" departDelay="148.00" arrival="1792.00" arrivalLane="25171322#8_0" arrivalPos="131.79" arrivalSpeed="0.00" duration="1578.00" routeLength="2127.79" waitingTime="1343.00" waitingCount="13" stopTime="0.00" timeLoss="1400.12" rerouteNo="1" devices="vehroute_flow_10152065052.32 tripinfo_flow_10152065052.32 routing_flow_10152065052.32 emissions_flow_10152065052.32" vType="car" speedFactor="0.95" vaporized="teleport">
        <emissions CO_abs="234505.652279" CO2_abs="4229525.461770" HC_abs="1166.225534" PMx_abs="100.050327" NOx_abs="1899.400820" fuel_abs="1349102.608249" electricity_abs="0"/>
    </tripinfo>
    <tripinfo id="flow_3891079340.20" depart="252.00" departLane="90042841#0_0" departPos="5.10" departSpeed="0.00" departDelay="210.00" arrival="1811.00" arrivalLane="-27774100#4_0" arrivalPos="237.63" arrivalSpeed="0.00" duration="1559.00" routeLength="3486.64" waitingTime="879.00" waitingCount="23" stopTime="0.00" timeLoss="986.99" rerouteNo="23" devices="vehroute_flow_3891079340.20 tripinfo_flow_3891079340.20 routing_flow_3891079340.20 emissions_flow_3891079340.20" vType="car" speedFactor="0.85" vaporized="teleport">
        <emissions CO_abs="171162.734338" CO2_abs="3536996.413605" HC_abs="861.702598" PMx_abs="77.169337" NOx_abs="1549.194938" fuel_abs="1128196.229949" electricity_abs="0"/>
    </tripinfo>
    <tripinfo id="flow_4839983111.37" depart="628.00" departLane="38261112#2_0" departPos="5.10" departSpeed="0.00" departDelay="552.00" arrival="1843.00" arrivalLane="542662636_0" arrivalPos="72.80" arrivalSpeed="11.96" duration="1215.00" routeLength="3423.61" waitingTime="386.00" waitingCount="7" stopTime="0.00" timeLoss="430.71" rerouteNo="7" devices="vehroute_flow_4839983111.37 tripinfo_flow_4839983111.37 routing_flow_4839983111.37 emissions_flow_4839983111.37" vType="car" speedFactor="0.86" vaporized="">
        <emissions CO_abs="79238.977938" CO2_abs="1890812.385598" HC_abs="404.354126" PMx_abs="36.881933" NOx_abs="797.963324" fuel_abs="603110.006356" electricity_abs="0"/>
    </tripinfo>
    <tripinfo id="flow_3891079338.16" depart="702.00" departLane="24892132#0_0" departPos="5.10" departSpeed="0.00" departDelay="668.00" arrival="1875.00" arrivalLane="-27774100#4_0" arrivalPos="237.63" arrivalSpeed="0.00" duration="1173.00" routeLength="1967.97" waitingTime="694.00" waitingCount="11" stopTime="0.00" timeLoss="765.76" rerouteNo="2" devices="vehroute_flow_3891079338.16 tripinfo_flow_3891079338.16 routing_flow_3891079338.16 emissions_flow_3891079338.16" vType="car" speedFactor="1.03" vaporized="teleport">
        <emissions CO_abs="128737.042109" CO2_abs="2439676.151373" HC_abs="642.267827" PMx_abs="55.530675" NOx_abs="1083.076328" fuel_abs="778187.915358" electricity_abs="0"/>
    </tripinfo>
    <tripinfo id="flow_11419078672.34" depart="596.00" departLane="38261112#2_0" departPos="5.10" departSpeed="0.00" departDelay="526.00" arrival="1926.00" arrivalLane="47372949#0_0" arrivalPos="144.56" arrivalSpeed="8.28" duration="1330.00" routeLength="4979.16" waitingTime="433.00" waitingCount="10" stopTime="0.00" timeLoss="539.17" rerouteNo="10" devices="vehroute_flow_11419078672.34 tripinfo_flow_11419078672.34 routing_flow_11419078672.34 emissions_flow_11419078672.34" vType="car" speedFactor="0.99" vaporized="">
        <emissions CO_abs="98508.350107" CO2_abs="2531404.710424" HC_abs="504.530222" PMx_abs="48.057657" NOx_abs="1059.806898" fuel_abs="807435.273232" electricity_abs="0"/>
    </tripinfo>
    <tripinfo id="flow_4839983111.16" depart="327.00" departLane="38261112#2_0" departPos="5.10" departSpeed="0.00" departDelay="293.00" arrival="1954.00" arrivalLane="542662636_0" arrivalPos="72.80" arrivalSpeed="17.44" duration="1627.00" routeLength="5033.93" waitingTime="935.00" waitingCount="13" stopTime="0.00" timeLoss="1061.50" rerouteNo="12" devices="vehroute_flow_4839983111.16 tripinfo_flow_4839983111.16 routing_flow_4839983111.16 emissions_flow_4839983111.16" vType="car" speedFactor="1.26" vaporized="">
        <emissions CO_abs="178681.051938" CO2_abs="3918098.804035" HC_abs="899.765667" PMx_abs="85.445082" NOx_abs="1702.901041" fuel_abs="1249749.842411" electricity_abs="0"/>
    </tripinfo>
    <tripinfo id="flow_5570538880.33" depart="389.00" departLane="30133975#0_0" departPos="5.10" departSpeed="0.00" departDelay="321.00" arrival="1959.00" arrivalLane="671575656_0" arrivalPos="130.85" arrivalSpeed="0.00" duration="1570.00" routeLength="2225.71" waitingTime="998.00" waitingCount="16" stopTime="0.00" timeLoss="1098.05" rerouteNo="91" devices="vehroute_flow_5570538880.33 tripinfo_flow_5570538880.33 routing_flow_5570538880.33 emissions_flow_5570538880.33" vType="car" speedFactor="1.01" vaporized="teleport">
        <emissions CO_abs="199922.565067" CO2_abs="3629751.903460" HC_abs="994.697789" PMx_abs="82.858567" NOx_abs="1616.958380" fuel_abs="1157793.447090" electricity_abs="0"/>
    </tripinfo>
    <tripinfo id="flow_4839983111.23" depart="433.00" departLane="38261112#2_0" departPos="5.10" departSpeed="0.00" departDelay="385.00" arrival="1961.00" arrivalLane="542662636_0" arrivalPos="72.80" arrivalSpeed="13.92" duration="1528.00" routeLength="5073.11" waitingTime="716.00" waitingCount="16" stopTime="0.00" timeLoss="836.75" rerouteNo="12" devices="vehroute_flow_4839983111.23 tripinfo_flow_4839983111.23 routing_flow_4839983111.23 emissions_flow_4839983111.23" vType="car" speedFactor="1.00" vaporized="">
        <emissions CO_abs="147037.788874" CO2_abs="3403713.388144" HC_abs="745.956367" PMx_abs="69.972444" NOx_abs="1459.048904" fuel_abs="1085676.512877" electricity_abs="0"/>
    </tripinfo>
    <tripinfo id="flow_6293583477.39" depart="655.00" departLane="38261112#2_0" departPos="5.10" departSpeed="0.00" departDelay="575.00" arrival="2014.00" arrivalLane="671575656_0" arrivalPos="130.85" arrivalSpeed="0.00" duration="1359.00" routeLength="2296.10" waitingTime="951.00" waitingCount="9" stopTime="0.00" timeLoss="994.88" rerouteNo="3" devices="vehroute_flow_6293583477.39 tripinfo_flow_6293583477.39 routing_flow_6293583477.39 emissions_flow_6293583477.39" vType="car" speedFactor="0.92" vaporized="teleport">
        <emissions CO_abs="169819.536026" CO2_abs="3156104.764258" HC_abs="846.485522" PMx_abs="71.517426" NOx_abs="1397.347843" fuel_abs="1006711.138004" electricity_abs="0"/>
    </tripinfo>
    <tripinfo id="flow_10152091453.15" depart="392.00" departLane="429356220#0_0" departPos="5.10" departSpeed="0.00" departDelay="360.00" arrival="2017.00" arrivalLane="34474265#5_0" arrivalPos="124.62" arrivalSpeed="0.00" duration="1625.00" routeLength="1478.39" waitingTime="1435.00" waitingCount="6" stopTime="0.00" timeLoss="1478.23" rerouteNo="1" devices="vehroute_flow_10152091453.15 tripinfo_flow_10152091453.15 routing_flow_10152091453.15 emissions_flow_10152091453.15" vType="car" speedFactor="0.91" vaporized="teleport">
        <emissions CO_abs="247257.401337" CO2_abs="4252753.784364" HC_abs="1225.269142" PMx_abs="101.458803" NOx_abs="1917.536794" fuel_abs="1356518.039334" electricity_abs="0"/>
    </tripinfo>
    <tripinfo id="flow_10152065052.34" depart="224.00" departLane="153950038#0_0" departPos="5.10" departSpeed="0.00" departDelay="154.00" arrival="2096.00" arrivalLane="25171322#8_0" arrivalPos="131.79" arrivalSpeed="0.00" duration="1872.00" routeLength="2127.79" waitingTime="1638.00" waitingCount="15" stopTime="0.00" timeLoss="1719.07" rerouteNo="1" devices="vehroute_flow_10152065052.34 tripinfo_flow_10152065052.34 routing_flow_10152065052.34 emissions_flow_10152065052.34" vType="car" speedFactor="1.11" vaporized="teleport">
        <emissions CO_abs="284645.291232" CO2_abs="5064585.450017" HC_abs="1413.285248" PMx_abs="121.128203" NOx_abs="2282.633673" fuel_abs="1615464.659327" electricity_abs="0"/>
    </tripinfo>
    <tripinfo id="flow_3891079338.4" depart="92.00" departLane="24892132#0_0" departPos="5.10" departSpeed="0.00" departDelay="82.00" arrival="2115.00" arrivalLane="-27774100#4_0" arrivalPos="237.63" arrivalSpeed="0.00" duration="2023.00" routeLength="2474.30" waitingTime="1415.00" waitingCount="24" stopTime="0.00" timeLoss="1474.56" rerouteNo="14" devices="vehroute_flow_3891079338.4 tripinfo_flow_3891079338.4 routing_flow_3891079338.4 emissions_flow_3891079338.4" vType="car" speedFactor="0.76" vaporized="teleport">
        <emissions CO_abs="258000.253994" CO2_abs="4624625.206403" HC_abs="1282.579252" PMx_abs="107.225781" NOx_abs="2068.011488" fuel_abs="1475131.758937" electricity_abs="0"/>
    </tripinfo>
    <tripinfo id="flow_4839983111.38" depart="640.00" departLane="38261112#2_0" departPos="5.10" departSpeed="0.00" departDelay="562.00" arrival="2144.00" arrivalLane="542662636_0" arrivalPos="72.80" arrivalSpeed="14.17" duration="1504.00" routeLength="3111.44" waitingTime="714.00" waitingCount="10" stopTime="0.00" timeLoss="807.40" rerouteNo="4" devices="vehroute_flow_4839983111.38 tripinfo_flow_4839983111.38 routing_flow_4839983111.38 emissions_flow_4839983111.38" vType="car" speedFactor="1.02" vaporized="">
        <emissions CO_abs="134158.891344" CO2_abs="2746366.683493" HC_abs="673.686452" PMx_abs="60.274508" NOx_abs="1201.994691" fuel_abs="876009.430702" electricity_abs="0"/>
    </tripinfo>
    <tripinfo id="flow_316775573.1" depart="33.00" departLane="41211484#1_0" departPos="5.10" departSpeed="0.00" departDelay="29.00" arrival="2279.00" arrivalLane="-685270734_0" arrivalPos="41.77" arrivalSpeed="7.55" duration="2246.00" routeLength="3501.65" waitingTime="1563.00" waitingCount="18" stopTime="0.00" timeLoss="1642.24" rerouteNo="6" devices="vehroute_flow_316775573.1 tripinfo_flow_316775573.1 routing_flow_316775573.1 emissions_flow_316775573.1" vType="car" speedFactor="0.91" vaporized="">
        <emissions CO_abs="291319.329152" CO2_abs="5379556.316807" HC_abs="1452.160186" PMx_abs="124.707488" NOx_abs="2401.846608" fuel_abs="1715929.304426" electricity_abs="0"/>
    </tripinfo>
    <tripinfo id="flow_10152091453.16" depart="402.00" departLane="429356220#0_0" departPos="5.10" departSpeed="0.00" departDelay="368.00" arrival="2321.00" arrivalLane="34474265#5_0" arrivalPos="124.62" arrivalSpeed="0.00" duration="1919.00" routeLength="1478.39" waitingTime="1733.00" waitingCount="7" stopTime="0.00" timeLoss="1770.50" rerouteNo="1" devices="vehroute_flow_10152091453.16 tripinfo_flow_10152091453.16 routing_flow_10152091453.16 emissions_flow_10152091453.16" vType="car" speedFactor="0.90" vaporized="teleport">
        <emissions CO_abs="295975.404203" CO2_abs="5028658.765362" HC_abs="1465.376759" PMx_abs="121.218434" NOx_abs="2274.976657" fuel_abs="1604012.496494" electricity_abs="0"/>
    </tripinfo>
    <tripinfo id="flow_10900394934.6" depart="532.00" departLane="24892132#0_0" departPos="5.10" departSpeed="0.00" departDelay="518.00" arrival="2393.00" arrivalLane="17343012#5_2" arrivalPos="117.81" arrivalSpeed="12.88" duration="1861.00" routeLength="3439.73" waitingTime="1036.00" waitingCount="28" stopTime="0.00" timeLoss="1115.93" rerouteNo="6" devices="vehroute_flow_10900394934.6 tripinfo_flow_10900394934.6 routing_flow_10900394934.6 emissions_flow_10900394934.6" vType="car" speedFactor="0.93" vaporized="">
        <emissions CO_abs="194070.521241" CO2_abs="3771086.867735" HC_abs="971.030719" PMx_abs="83.434017" NOx_abs="1658.809376" fuel_abs="1202870.121862" electricity_abs="0"/>
    </tripinfo>
    <tripinfo id="flow_10152065052.24" depart="159.00" departLane="153950038#0_0" departPos="5.10" departSpeed="0.00" departDelay="109.00" arrival="2400.00" arrivalLane="25171322#8_0" arrivalPos="131.79" arrivalSpeed="0.00" duration="2241.00" routeLength="2127.79" waitingTime="2004.00" waitingCount="17" stopTime="0.00" timeLoss="2076.70" rerouteNo="1" devices="vehroute_flow_10152065052.24 tripinfo_flow_10152065052.24 routing_flow_10152065052.24 emissions_flow_10152065052.24" vType="car" speedFactor="1.03" vaporized="teleport">
        <emissions CO_abs="345167.919763" CO2_abs="6032288.131378" HC_abs="1711.576999" PMx_abs="145.105160" NOx_abs="2724.613004" fuel_abs="1924138.425409" electricity_abs="0"/>
    </tripinfo>
    <tripinfo id="flow_11419078672.41" depart="677.00" departLane="38261112#2_0" departPos="5.10" departSpeed="0.00" departDelay="593.00" arrival="2462.00" arrivalLane="47372949#0_0" arrivalPos="144.56" arrivalSpeed="5.20" duration="1785.00" routeLength="4763.94" waitingTime="963.00" waitingCount="14" stopTime="0.00" timeLoss="1070.75" rerouteNo="12" devices="vehroute_flow_11419078672.41 tripinfo_flow_11419078672.41 routing_flow_11419078672.41 emissions_flow_11419078672.41" vType="car" speedFactor="0.92" vaporized="">
        <emissions CO_abs="189112.142486" CO2_abs="3988853.951224" HC_abs="953.420559" PMx_abs="84.749997" NOx_abs="1730.969756" fuel_abs="1272325.463195" electricity_abs="0"/>
    </tripinfo>
    <tripinfo id="flow_4839983111.32" depart="566.00" departLane="38261112#2_0" departPos="5.10" departSpeed="0.00" departDelay="500.00" arrival="2464.00" arrivalLane="542662636_2" arrivalPos="72.80" arrivalSpeed="14.06" duration="1898.00" routeLength="3423.61" waitingTime="1071.00" waitingCount="11" stopTime="0.00" timeLoss="1160.20" rerouteNo="7" devices="vehroute_flow_4839983111.32 tripinfo_flow_4839983111.32 routing_flow_4839983111.32 emissions_flow_4839983111.32" vType="car" speedFactor="1.01" vaporized="">
        <emissions CO_abs="195989.764720" CO2_abs="3830690.906833" HC_abs="979.827325" PMx_abs="86.488858" NOx_abs="1692.589441" fuel_abs="1221879.466742" electricity_abs="0"/>
    </tripinfo>
    <tripinfo id="flow_4839983111.35" depart="603.00" departLane="38261112#2_0" departPos="5.10" departSpeed="0.00" departDelay="531.00" arrival="2464.00" arrivalLane="542662636_1" arrivalPos="72.80" arrivalSpeed="14.15" duration="1861.00" routeLength="5053.61" waitingTime="723.00" waitingCount="11" stopTime="0.00" timeLoss="835.18" rerouteNo="12" devices="vehroute_flow_4839983111.35 tripinfo_flow_4839983111.35 routing_flow_4839983111.35 emissions_flow_4839983111.35" vType="car" speedFactor="1.02" vaporized="">
        <emissions CO_abs="145214.906030" CO2_abs="3332660.764163" HC_abs="736.278285" PMx_abs="68.690600" NOx_abs="1429.206321" fuel_abs="1063013.643316" electricity_abs="0"/>
    </tripinfo>
    <tripinfo id="flow_316775573.8" depart="828.00" departLane="41211484#1_0" departPos="5.10" departSpeed="0.00" departDelay="810.00" arrival="2466.00" arrivalLane="-685270734_0" arrivalPos="41.77" arrivalSpeed="8.94" duration="1638.00" routeLength="3916.71" waitingTime="788.00" waitingCount="15" stopTime="0.00" timeLoss="912.87" rerouteNo="8" devices="vehroute_flow_316775573.8 tripinfo_flow_316775573.8 routing_flow_316775573.8 emissions_flow_316775573.8" vType="car" speedFactor="1.07" vaporized="">
        <emissions CO_abs="166332.634764" CO2_abs="3463814.710329" HC_abs="835.824103" PMx_abs="76.270091" NOx_abs="1519.054609" fuel_abs="1104851.688936" electricity_abs="0"/>
    </tripinfo>
    <tripinfo id="flow_4662964930.4" depart="145.00" departLane="41211484#1_0" departPos="5.10" departSpeed="0.00" departDelay="135.00" arrival="2487.00" arrivalLane="27774529#0_0" arrivalPos="264.75" arrivalSpeed="0.00" duration="2342.00" routeLength="3614.33" waitingTime="1839.00" waitingCount="23" stopTime="0.00" timeLoss="1928.58" rerouteNo="1" devices="vehroute_flow_4662964930.4 tripinfo_flow_4662964930.4 routing_flow_4662964930.4 emissions_flow_4662964930.4" vType="car" speedFactor="0.89" vaporized="teleport">
        <emissions CO_abs="338108.533282" CO2_abs="6222486.000523" HC_abs="1684.822822" PMx_abs="143.841962" NOx_abs="2772.790762" fuel_abs="1984801.904030" electricity_abs="0"/>
    </tripinfo>
    <tripinfo id="flow_3891079338.17" depart="715.00" departLane="24892132#0_0" departPos="5.10" departSpeed="0.00" departDelay="679.00" arrival="2486.00" arrivalLane="-27774100#4_0" arrivalPos="237.63" arrivalSpeed="0.10" duration="1771.00" routeLength="1967.97" waitingTime="1267.00" waitingCount="11" stopTime="0.00" timeLoss="1298.15" rerouteNo="2" devices="vehroute_flow_3891079338.17 tripinfo_flow_3891079338.17 routing_flow_3891079338.17 emissions_flow_3891079338.17" vType="car" speedFactor="0.74" vaporized="teleport">
        <emissions CO_abs="224932.864710" CO2_abs="3957311.103577" HC_abs="1116.483645" PMx_abs="92.491222" NOx_abs="1773.497273" fuel_abs="1262278.280172" electricity_abs="0"/>
    </tripinfo>
    <tripinfo id="flow_10785794283.18" depart="732.00" departLane="24892132#0_0" departPos="5.10" departSpeed="0.00" departDelay="694.00" arrival="2497.00" arrivalLane="232170520#0_0" arrivalPos="62.10" arrivalSpeed="6.77" duration="1765.00" routeLength="5944.32" waitingTime="782.00" waitingCount="19" stopTime="0.00" timeLoss="856.62" rerouteNo="9" devices="vehroute_flow_10785794283.18 tripinfo_flow_10785794283.18 routing_flow_10785794283.18 emissions_flow_10785794283.18" vType="car" speedFactor="0.81" vaporized="">
        <emissions CO_abs="163618.558933" CO2_abs="3743261.021387" HC_abs="831.076755" PMx_abs="73.342945" NOx_abs="1585.954907" fuel_abs="1193986.775717" electricity_abs="0"/>
    </tripinfo>
    <tripinfo id="flow_10785794283.11" depart="625.00" departLane="24892132#0_0" departPos="5.10" departSpeed="0.00" departDelay="601.00" arrival="2544.00" arrivalLane="232170520#0_0" arrivalPos="62.10" arrivalSpeed="9.13" duration="1919.00" routeLength="7572.81" waitingTime="737.00" waitingCount="26" stopTime="0.00" timeLoss="917.83" rerouteNo="19" devices="vehroute_flow_10785794283.11 tripinfo_flow_10785794283.11 routing_flow_10785794283.11 emissions_flow_10785794283.11" vType="car" speedFactor="1.10" vaporized="">
        <emissions CO_abs="160939.707358" CO2_abs="4149268.962450" HC_abs="823.536091" PMx_abs="81.175813" NOx_abs="1748.987646" fuel_abs="1323478.036602" electricity_abs="0"/>
    </tripinfo>
    <tripinfo id="flow_6293583477.11" depart="228.00" departLane="38261112#2_0" departPos="5.10" departSpeed="0.00" departDelay="204.00" arrival="2567.00" arrivalLane="671575656_0" arrivalPos="130.85" arrivalSpeed="0.00" duration="2339.00" routeLength="2722.13" waitingTime="1753.00" waitingCount="20" stopTime="0.00" timeLoss="1861.81" rerouteNo="89" devices="vehroute_flow_6293583477.11 tripinfo_flow_6293583477.11 routing_flow_6293583477.11 emissions_flow_6293583477.11" vType="car" speedFactor="1.07" vaporized="teleport">
        <emissions CO_abs="323247.228256" CO2_abs="5719890.591192" HC_abs="1604.139485" PMx_abs="134.311660" NOx_abs="2565.287223" fuel_abs="1824492.918429" electricity_abs="0"/>
    </tripinfo>
    <tripinfo id="flow_3891079338.22" depart="782.00" departLane="24892132#0_0" departPos="5.10" departSpeed="0.00" departDelay="736.00" arrival="2584.00" arrivalLane="-27774100#4_0" arrivalPos="237.63" arrivalSpeed="0.00" duration="1802.00" routeLength="1951.40" waitingTime="1524.00" waitingCount="15" stopTime="0.00" timeLoss="1567.10" rerouteNo="2" devices="vehroute_flow_3891079338.22 tripinfo_flow_3891079338.22 routing_flow_3891079338.22 emissions_flow_3891079338.22" vType="car" speedFactor="0.82" vaporized="teleport">