<?xml version="1.0" encoding="UTF-8"?>

<!-- generated on 2024-07-26 02:52:37 by Eclipse SUMO sumo Version 1.18.0
<configuration xmlns:xsi="http://www.w3.org/2001/XMLSchema-instance" xsi:noNamespaceSchemaLocation="http://sumo.dlr.de/xsd/sumoConfiguration.xsd">

    <input>
        <net-file value="../osm.net.xml"/>
        <route-files value="../flow.rou.xml"/>
        <additional-files value="../osm.poly.xml.gz,../parkings.add.xml,parking.rerouter.add.xml,parking_config.add.xml"/>
    </input>

    <output>
        <emission-output value="output/emissions.xml"/>
        <summary-output value="output/summary.xml"/>
        <tripinfo-output value="output/tripinfos.xml"/>
        <vehroute-output value="output/vehroutes.xml"/>
        <stop-output value="output/stopinfo.xml"/>
        <statistic-output value="output/statistics.xml"/>
    </output>

    <processing>
        <ignore-route-errors value="true"/>
    </processing>

    <routing>
        <device.rerouting.adaptation-steps value="18"/>
        <device.rerouting.adaptation-interval value="10"/>
    </routing>

    <report>
        <verbose value="true"/>
        <duration-log.statistics value="true"/>
        <no-step-log value="true"/>
    </report>

    <gui_only>
        <gui-settings-file value="../sim.view.xml"/>
    </gui_only>

</configuration>
-->

<tripinfos xmlns:xsi="http://www.w3.org/2001/XMLSchema-instance" xsi:noNamespaceSchemaLocation="http://sumo.dlr.de/xsd/tripinfo_file.xsd">
    <tripinfo id="flow_10152091453.11" depart="344.00" departLane="429356220#0_0" departPos="5.10" departSpeed="0.00" departDelay="320.00" arrival="804.00" arrivalLane="34474265#5_0" arrivalPos="124.62" arrivalSpeed="0.00" duration="460.00" routeLength="1478.39" waitingTime="302.00" waitingCount="2" stopTime="0.00" timeLoss="335.91" rerouteNo="1" devices="vehroute_flow_10152091453.11 tripinfo_flow_10152091453.11 routing_flow_10152091453.11 emissions_flow_10152091453.11" vType="car" speedFactor="1.08" vaporized="teleport">
        <emissions CO_abs="57273.229084" CO2_abs="1250402.481193" HC_abs="289.159880" PMx_abs="26.702267" NOx_abs="542.438478" fuel_abs="398839.648490" electricity_abs="0"/>
    </tripinfo>
    <tripinfo id="flow_10152065052.29" depart="184.00" departLane="153950038#0_0" departPos="5.10" departSpeed="0.00" departDelay="124.00" arrival="880.00" arrivalLane="25171322#8_0" arrivalPos="131.79" arrivalSpeed="0.00" duration="696.00" routeLength="2127.79" waitingTime="482.00" waitingCount="12" stopTime="0.00" timeLoss="530.31" rerouteNo="1" devices="vehroute_flow_10152065052.29 tripinfo_flow_10152065052.29 routing_flow_10152065052.29 emissions_flow_10152065052.29" vType="car" speedFactor="1.02" vaporized="teleport">
        <emissions CO_abs="90934.532621" CO2_abs="1939691.229564" HC_abs="457.904004" PMx_abs="42.473450" NOx_abs="846.841576" fuel_abs="618701.617390" electricity_abs="0"/>
    </tripinfo>
    <tripinfo id="flow_10152091453.12" depart="357.00" departLane="429356220#0_0" departPos="5.10" departSpeed="0.00" departDelay="331.00" arrival="1108.00" arrivalLane="34474265#5_0" arrivalPos="124.62" arrivalSpeed="0.00" duration="751.00" routeLength="1478.39" waitingTime="591.00" waitingCount="3" stopTime="0.00" timeLoss="610.86" rerouteNo="1" devices="vehroute_flow_10152091453.12 tripinfo_flow_10152091453.12 routing_flow_10152091453.12 emissions_flow_10152091453.12" vType="car" speedFactor="0.95" vaporized="teleport">
        <emissions CO_abs="104213.993548" CO2_abs="1965457.629672" HC_abs="519.815198" PMx_abs="44.345382" NOx_abs="868.391581" fuel_abs="626926.486997" electricity_abs="0"/>
    </tripinfo>
    <tripinfo id="flow_10152065052.25" depart="164.00" departLane="153950038#0_0" departPos="5.10" departSpeed="0.00" departDelay="112.00" arrival="1184.00" arrivalLane="25171322#8_0" arrivalPos="131.79" arrivalSpeed="0.00" duration="1020.00" routeLength="2127.79" waitingTime="809.00" waitingCount="13" stopTime="0.00" timeLoss="854.66" rerouteNo="1" devices="vehroute_flow_10152065052.25 tripinfo_flow_10152065052.25 routing_flow_10152065052.25 emissions_flow_10152065052.25" vType="car" speedFactor="1.02" vaporized="teleport">
        <emissions CO_abs="144459.899547" CO2_abs="2794522.123703" HC_abs="721.301451" PMx_abs="63.988450" NOx_abs="1239.307835" fuel_abs="891371.598655" electricity_abs="0"/>
    </tripinfo>
    <tripinfo id="flow_3891079338.16" depart="702.00" departLane="24892132#0_0" departPos="5.10" departSpeed="0.00" departDelay="668.00" arrival="1355.00" arrivalLane="-27774100#4_0" arrivalPos="237.63" arrivalSpeed="0.00" duration="653.00" routeLength="1951.40" waitingTime="401.00" waitingCount="10" stopTime="0.00" timeLoss="467.89" rerouteNo="2" devices="vehroute_flow_3891079338.16 tripinfo_flow_3891079338.16 routing_flow_3891079338.16 emissions_flow_3891079338.16" vType="car" speedFactor="1.03" vaporized="teleport">
        <emissions CO_abs="79643.128626" CO2_abs="1637247.320950" HC_abs="399.896885" PMx_abs="35.471009" NOx_abs="715.456851" fuel_abs="522233.438451" electricity_abs="0"/>
    </tripinfo>
    <tripinfo id="flow_5570538880.33" depart="389.00" departLane="30133975#0_0" departPos="5.10" departSpeed="0.00" departDelay="321.00" arrival="1369.00" arrivalLane="671575656_0" arrivalPos="130.85" arrivalSpeed="0.00" duration="980.00" routeLength="2225.71" waitingTime="411.00" waitingCount="15" stopTime="0.00" timeLoss="508.20" rerouteNo="91" devices="vehroute_flow_5570538880.33 tripinfo_flow_5570538880.33 routing_flow_5570538880.33 emissions_flow_5570538880.33" vType="car" speedFactor="1.01" vaporized="teleport">
        <emissions CO_abs="102886.471629" CO2_abs="2079000.565607" HC_abs="516.437632" PMx_abs="43.950649" NOx_abs="905.678529" fuel_abs="663141.813510" electricity_abs="0"/>
    </tripinfo>
    <tripinfo id="flow_10152091453.13" depart="369.00" departLane="429356220#0_0" departPos="5.10" departSpeed="0.00" departDelay="341.00" arrival="1412.00" arrivalLane="34474265#5_0" arrivalPos="124.62" arrivalSpeed="0.00" duration="1043.00" routeLength="1478.39" waitingTime="885.00" waitingCount="5" stopTime="0.00" timeLoss="903.86" rerouteNo="1" devices="vehroute_flow_10152091453.13 tripinfo_flow_10152091453.13 routing_flow_10152091453.13 emissions_flow_10152091453.13" vType="car" speedFactor="0.96" vaporized="teleport">
        <emissions CO_abs="153049.894878" CO2_abs="2754252.182261" HC_abs="760.745655" PMx_abs="64.061019" NOx_abs="1229.650791" fuel_abs="878532.364160" electricity_abs="0"/>
    </tripinfo>
    <tripinfo id="flow_6293583477.30" depart="543.00" departLane="38261112#2_0" departPos="5.10" departSpeed="0.00" departDelay="481.00" arrival="1419.00" arrivalLane="671575656_0" arrivalPos="130.85" arrivalSpeed="0.00" duration="876.00" routeLength="2521.01" waitingTime="444.00" waitingCount="10" stopTime="0.00" timeLoss="531.50" rerouteNo="4" devices="vehroute_flow_6293583477.30 tripinfo_flow_6293583477.30 routing_flow_6293583477.30 emissions_flow_6293583477.30" vType="car" speedFactor="1.10" vaporized="teleport">
        <emissions CO_abs="89060.087256" CO2_abs="1947657.268258" HC_abs="449.430626" PMx_abs="41.239907" NOx_abs="843.178285" fuel_abs="621242.558306" electricity_abs="0"/>
    </tripinfo>
    <tripinfo id="flow_10152065052.24" depart="159.00" departLane="153950038#0_0" departPos="5.10" departSpeed="0.00" departDelay="109.00" arrival="1488.00" arrivalLane="25171322#8_0" arrivalPos="131.79" arrivalSpeed="0.00" duration="1329.00" routeLength="2127.79" waitingTime="1111.00" waitingCount="12" stopTime="0.00" timeLoss="1163.91" rerouteNo="1" devices="vehroute_flow_10152065052.24 tripinfo_flow_10152065052.24 routing_flow_10152065052.24 emissions_flow_10152065052.24" vType="car" speedFactor="1.03" vaporized="teleport">
        <emissions CO_abs="194664.133566" CO2_abs="3610738.282675" HC_abs="969.237381" PMx_abs="84.126427" NOx_abs="1611.579022" fuel_abs="1151724.385019" electricity_abs="0"/>
    </tripinfo>
    <tripinfo id="flow_6293583477.13" depart="271.00" departLane="38261112#2_0" departPos="5.10" departSpeed="0.00" departDelay="243.00" arrival="1673.00" arrivalLane="671575656_0" arrivalPos="130.85" arrivalSpeed="0.00" duration="1402.00" routeLength="2778.69" waitingTime="816.00" waitingCount="17" stopTime="0.00" timeLoss="952.10" rerouteNo="90" devices="vehroute_flow_6293583477.13 tripinfo_flow_6293583477.13 routing_flow_6293583477.13 emissions_flow_6293583477.13" vType="car" speedFactor="1.18" vaporized="teleport">
        <emissions CO_abs="169352.896413" CO2_abs="3269590.582526" HC_abs="845.159084" PMx_abs="73.050183" NOx_abs="1441.666103" fuel_abs="1042906.702466" electricity_abs="0"/>
    </tripinfo>
    <tripinfo id="flow_10152091453.14" depart="382.00" departLane="429356220#0_0" departPos="5.10" departSpeed="0.00" departDelay="352.00" arrival="1716.00" arrivalLane="34474265#5_0" arrivalPos="124.62" arrivalSpeed="0.00" duration="1334.00" routeLength="1478.39" waitingTime="1146.00" waitingCount="6" stopTime="0.00" timeLoss="1163.39" rerouteNo="1" devices="vehroute_flow_10152091453.14 tripinfo_flow_10152091453.14 routing_flow_10152091453.14 emissions_flow_10152091453.14" vType="car" speedFactor="0.78" vaporized="teleport">
        <emissions CO_abs="198983.860896" CO2_abs="3475399.131853" HC_abs="987.148733" PMx_abs="81.644068" NOx_abs="1558.762923" fuel_abs="1108561.577842" electricity_abs="0"/>
    </tripinfo>
    <tripinfo id="flow_6293583477.35" depart="604.00" departLane="38261112#2_0" departPos="5.10" departSpeed="0.00" departDelay="532.00" arrival="1723.00" arrivalLane="671575656_0" arrivalPos="130.85" arrivalSpeed="0.00" duration="1119.00" routeLength="2352.66" waitingTime="693.00" waitingCount="12" stopTime="0.00" timeLoss="788.65" rerouteNo="4" devices="vehroute_flow_6293583477.35 tripinfo_flow_6293583477.35 routing_flow_6293583477.35 emissions_flow_6293583477.35" vType="car" speedFactor="1.12" vaporized="teleport">
        <emissions CO_abs="130859.419748" CO2_abs="2589891.391944" HC_abs="654.869757" PMx_abs="57.820245" NOx_abs="1141.358692" fuel_abs="826099.948117" electricity_abs="0"/>
    </tripinfo>
    <tripinfo id="flow_10900394934.3" depart="79.00" departLane="24892132#0_0" departPos="5.10" departSpeed="0.00" departDelay="71.00" arrival="1774.00" arrivalLane="17343012#5_2" arrivalPos="117.81" arrivalSpeed="12.95" duration="1695.00" routeLength="3439.73" waitingTime="863.00" waitingCount="33" stopTime="0.00" timeLoss="951.24" rerouteNo="6" devices="vehroute_flow_10900394934.3 tripinfo_flow_10900394934.3 routing_flow_10900394934.3 emissions_flow_10900394934.3" vType="car" speedFactor="0.93" vaporized="">
        <emissions CO_abs="167975.599614" CO2_abs="3378481.965705" HC_abs="842.935724" PMx_abs="73.459600" NOx_abs="1478.237947" fuel_abs="1077637.926036" electricity_abs="0"/>
    </tripinfo>
    <tripinfo id="flow_10785794283.2" depart="57.00" departLane="24892132#0_0" departPos="5.10" departSpeed="0.00" departDelay="51.00" arrival="1776.00" arrivalLane="232170520#0_0" arrivalPos="62.10" arrivalSpeed="7.63" duration="1719.00" routeLength="5951.46" waitingTime="895.00" waitingCount="26" stopTime="0.00" timeLoss="989.08" rerouteNo="12" devices="vehroute_flow_10785794283.2 tripinfo_flow_10785794283.2 routing_flow_10785794283.2 emissions_flow_10785794283.2" vType="car" speedFactor="0.92" vaporized="">
        <emissions CO_abs="180079.151415" CO2_abs="4088432.003354" HC_abs="914.312733" PMx_abs="83.108668" NOx_abs="1748.120868" fuel_abs="1304083.557549" electricity_abs="0"/>
    </tripinfo>
    <tripinfo id="flow_10152065052.33" depart="219.00" departLane="153950038#0_0" departPos="5.10" departSpeed="0.00" departDelay="151.00" arrival="1792.00" arrivalLane="25171322#8_0" arrivalPos="131.79" arrivalSpeed="0.00" duration="1573.00" routeLength="2127.79" waitingTime="1334.00" waitingCount="14" stopTime="0.00" timeLoss="1391.84" rerouteNo="1" devices="vehroute_flow_10152065052.33 tripinfo_flow_10152065052.33 routing_flow_10152065052.33 emissions_flow_10152065052.33" vType="car" speedFactor="0.94" vaporized="teleport">
        <emissions CO_abs="233600.971830" CO2_abs="4225151.214597" HC_abs="1162.197950" PMx_abs="99.911896" NOx_abs="1897.464894" fuel_abs="1347706.969542" electricity_abs="0"/>
    </tripinfo>
    <tripinfo id="flow_697236821.20" depart="425.00" departLane="222427536#0_0" departPos="5.10" departSpeed="0.00" departDelay="383.00" arrival="1888.00" arrivalLane="-56926855#5_0" arrivalPos="189.38" arrivalSpeed="6.87" duration="1463.00" routeLength="4450.77" waitingTime="523.00" waitingCount="17" stopTime="0.00" timeLoss="696.09" rerouteNo="21" devices="vehroute_flow_697236821.20 tripinfo_flow_697236821.20 routing_flow_697236821.20 emissions_flow_697236821.20" vType="car" speedFactor="1.27" vaporized="">
        <emissions CO_abs="112189.542953" CO2_abs="2713598.402167" HC_abs="570.876657" PMx_abs="55.727607" NOx_abs="1159.443138" fuel_abs="865548.725372" electricity_abs="0"/>
    </tripinfo>
    <tripinfo id="flow_2634087847.37" depart="94.00" departLane="771368477#0_0" departPos="5.10" departSpeed="0.00" departDelay="18.00" arrival="1915.00" arrivalLane="542662641#1_0" arrivalPos="90.33" arrivalSpeed="7.80" duration="1821.00" routeLength="5158.29" waitingTime="1026.00" waitingCount="25" stopTime="0.00" timeLoss="1168.17" rerouteNo="10" devices="vehroute_flow_2634087847.37 tripinfo_flow_2634087847.37 routing_flow_2634087847.37 emissions_flow_2634087847.37" vType="car" speedFactor="1.06" vaporized="">
        <emissions CO_abs="198106.750233" CO2_abs="4258375.467996" HC_abs="998.149482" PMx_abs="92.293910" NOx_abs="1855.373120" fuel_abs="1358290.188584" electricity_abs="0"/>
    </tripinfo>
    <tripinfo id="flow_6293583477.11" depart="228.00" departLane="38261112#2_0" departPos="5.10" departSpeed="0.00" departDelay="204.00" arrival="1977.00" arrivalLane="671575656_0" arrivalPos="130.85" arrivalSpeed="0.00" duration="1749.00" routeLength="2722.13" waitingTime="1160.00" waitingCount="20" stopTime="0.00" timeLoss="1271.66" rerouteNo="89" devices="vehroute_flow_6293583477.11 tripinfo_flow_6293583477.11 routing_flow_6293583477.11 emissions_flow_6293583477.11" vType="car" speedFactor="1.07" vaporized="teleport">
        <emissions CO_abs="225546.789998" CO2_abs="4166900.359537" HC_abs="1122.757054" PMx_abs="95.188487" NOx_abs="1852.131731" fuel_abs="1329126.967710" electricity_abs="0"/>
    </tripinfo>
    <tripinfo id="flow_10785794283.4" depart="97.00" departLane="24892132#0_0" departPos="5.10" departSpeed="0.00" departDelay="87.00" arrival="2002.00" arrivalLane="232170520#0_0" arrivalPos="62.10" arrivalSpeed="8.94" duration="1905.00" routeLength="4612.46" waitingTime="1160.00" waitingCount="29" stopTime="0.00" timeLoss="1301.61" rerouteNo="5" devices="vehroute_flow_10785794283.4 tripinfo_flow_10785794283.4 routing_flow_10785794283.4 emissions_flow_10785794283.4" vType="car" speedFactor="1.07" vaporized="">
        <emissions CO_abs="219793.429043" CO2_abs="4466717.908335" HC_abs="1100.803264" PMx_abs="99.092024" NOx_abs="1960.240997" fuel_abs="1424750.000540" electricity_abs="0"/>
    </tripinfo>
    <tripinfo id="flow_10152091453.15" depart="392.00" departLane="429356220#0_0" departPos="5.10" departSpeed="0.00" departDelay="360.00" arrival="2020.00" arrivalLane="34474265#5_0" arrivalPos="124.62" arrivalSpeed="0.00" duration="1628.00" routeLength="1478.39" waitingTime="1439.00" waitingCount="7" stopTime="0.00" timeLoss="1481.35" rerouteNo="1" devices="vehroute_flow_10152091453.15 tripinfo_flow_10152091453.15 routing_flow_10152091453.15 emissions_flow_10152091453.15" vType="car" speedFactor="0.91" vaporized="teleport">
        <emissions CO_abs="247937.472774" CO2_abs="4267632.932400" HC_abs="1228.700640" PMx_abs="101.711146" NOx_abs="1923.504082" fuel_abs="1361264.106190" electricity_abs="0"/>
    </tripinfo>
    <tripinfo id="flow_6293583477.34" depart="589.00" departLane="38261112#2_0" departPos="5.10" departSpeed="0.00" departDelay="519.00" arrival="2032.00" arrivalLane="671575656_0" arrivalPos="130.85" arrivalSpeed="0.00" duration="1443.00" routeLength="2352.66" waitingTime="997.00" waitingCount="14" stopTime="0.00" timeLoss="1088.01" rerouteNo="4" devices="vehroute_flow_6293583477.34 tripinfo_flow_6293583477.34 routing_flow_6293583477.34 emissions_flow_6293583477.34" vType="car" speedFactor="0.99" vaporized="teleport">
        <emissions CO_abs="182677.528002" CO2_abs="3399280.761030" HC_abs="910.267689" PMx_abs="77.855516" NOx_abs="1511.905047" fuel_abs="1084276.355554" electricity_abs="0"/>
    </tripinfo>
    <tripinfo id="flow_10152065052.35" depart="229.00" departLane="153950038#0_0" departPos="5.10" departSpeed="0.00" departDelay="157.00" arrival="2096.00" arrivalLane="25171322#8_0" arrivalPos="131.79" arrivalSpeed="0.00" duration="1867.00" routeLength="2127.79" waitingTime="1629.00" waitingCount="18" stopTime="0.00" timeLoss="1711.12" rerouteNo="1" devices="vehroute_flow_10152065052.35 tripinfo_flow_10152065052.35 routing_flow_10152065052.35 emissions_flow_10152065052.35" vType="car" speedFactor="1.08" vaporized="teleport">
        <emissions CO_abs="283248.693530" CO2_abs="5024932.081839" HC_abs="1406.626980" PMx_abs="120.259281" NOx_abs="2265.686130" fuel_abs="1602816.825095" electricity_abs="0"/>
    </tripinfo>
    <tripinfo id="flow_3891079340.23" depart="282.00" departLane="90042841#0_0" departPos="5.10" departSpeed="0.00" departDelay="234.00" arrival="2103.00" arrivalLane="-27774100#4_0" arrivalPos="237.63" arrivalSpeed="0.00" duration="1821.00" routeLength="5946.37" waitingTime="996.00" waitingCount="32" stopTime="0.00" timeLoss="1169.39" rerouteNo="21" devices="vehroute_flow_3891079340.23 tripinfo_flow_3891079340.23 routing_flow_3891079340.23 emissions_flow_3891079340.23" vType="car" speedFactor="1.00" vaporized="teleport">
        <emissions CO_abs="200500.804651" CO2_abs="4523465.533483" HC_abs="1015.319710" PMx_abs="95.459824" NOx_abs="1955.533252" fuel_abs="1442842.369860" electricity_abs="0"/>
    </tripinfo>
    <tripinfo id="flow_10785794283.7" depart="550.00" departLane="24892132#0_0" departPos="5.10" departSpeed="0.00" departDelay="534.00" arrival="2105.00" arrivalLane="232170520#0_0" arrivalPos="62.10" arrivalSpeed="7.96" duration="1555.00" routeLength="5146.99" waitingTime="801.00" waitingCount="20" stopTime="0.00" timeLoss="894.89" rerouteNo="10" devices="vehroute_flow_10785794283.7 tripinfo_flow_10785794283.7 routing_flow_10785794283.7 emissions_flow_10785794283.7" vType="car" speedFactor="0.96" vaporized="">
        <emissions CO_abs="156566.249496" CO2_abs="3488710.658185" HC_abs="791.697364" PMx_abs="71.711024" NOx_abs="1494.427553" fuel_abs="1112791.840947" electricity_abs="0"/>
    </tripinfo>
    <tripinfo id="flow_2634087847.49" depart="124.00" departLane="771368477#0_0" departPos="5.10" departSpeed="0.00" departDelay="24.00" arrival="2175.00" arrivalLane="542662641#1_0" arrivalPos="90.33" arrivalSpeed="11.74" duration="2051.00" routeLength="5488.07" waitingTime="1047.00" waitingCount="23" stopTime="0.00" timeLoss="1134.02" rerouteNo="13" devices="vehroute_flow_2634087847.49 tripinfo_flow_2634087847.49 routing_flow_2634087847.49 emissions_flow_2634087847.49" vType="car" speedFactor="0.85" vaporized="">
        <emissions CO_abs="203595.472531" CO2_abs="4366559.980652" HC_abs="1028.217277" PMx_abs="91.457481" NOx_abs="1886.199003" fuel_abs="1392801.791628" electricity_abs="0"/>
    </tripinfo>
    <tripinfo id="flow_4839983111.36" depart="612.00" departLane="38261112#2_0" departPos="5.10" departSpeed="0.00" departDelay="538.00" arrival="2226.00" arrivalLane="542662636_0" arrivalPos="72.80" arrivalSpeed="12.79" duration="1614.00" routeLength="3423.61" waitingTime="776.00" waitingCount="11" stopTime="0.00" timeLoss="851.08" rerouteNo="6" devices="vehroute_flow_4839983111.36 tripinfo_flow_4839983111.36 routing_flow_4839983111.36 emissions_flow_4839983111.36" vType="car" speedFactor="0.92" vaporized="">
        <emissions CO_abs="146149.810474" CO2_abs="2997677.409303" HC_abs="734.869909" PMx_abs="64.845032" NOx_abs="1306.914672" fuel_abs="956171.046523" electricity_abs="0"/>
    </tripinfo>
    <tripinfo id="flow_3891079338.15" depart="686.00" departLane="24892132#0_0" departPos="5.10" departSpeed="0.00" departDelay="654.00" arrival="2240.00" arrivalLane="-27774100#4_0" arrivalPos="237.63" arrivalSpeed="0.00" duration="1554.00" routeLength="1967.97" waitingTime="1072.00" waitingCount="14" stopTime="0.00" timeLoss="1144.77" rerouteNo="2" devices="vehroute_flow_3891079338.15 tripinfo_flow_3891079338.15 routing_flow_3891079338.15 emissions_flow_3891079338.15" vType="car" speedFactor="1.02" vaporized="teleport">
        <emissions CO_abs="191640.682097" CO2_abs="3476276.187203" HC_abs="953.175413" PMx_abs="81.545733" NOx_abs="1558.779581" fuel_abs="1108836.640089" electricity_abs="0"/>
    </tripinfo>
    <tripinfo id="flow_4662964930.4" depart="145.00" departLane="41211484#1_0" departPos="5.10" departSpeed="0.00" departDelay="135.00" arrival="2267.00" arrivalLane="27774529#0_0" arrivalPos="264.75" arrivalSpeed="0.00" duration="2122.00" routeLength="3571.65" waitingTime="1612.00" waitingCount="24" stopTime="0.00" timeLoss="1708.70" rerouteNo="1" devices="vehroute_flow_4662964930.4 tripinfo_flow_4662964930.4 routing_flow_4662964930.4 emissions_flow_4662964930.4" vType="car" speedFactor="0.89" vaporized="teleport">
        <emissions CO_abs="300949.270469" CO2_abs="5591436.515528" HC_abs="1500.844281" PMx_abs="128.286287" NOx_abs="2485.563859" fuel_abs="1783513.736149" electricity_abs="0"/>
    </tripinfo>
    <tripinfo id="flow_6293583477.12" depart="250.00" departLane="38261112#2_0" departPos="5.10" departSpeed="0.00" departDelay="224.00" arrival="2281.00" arrivalLane="671575656_0" arrivalPos="130.85" arrivalSpeed="0.00" duration="2031.00" routeLength="2778.69" waitingTime="1424.00" waitingCount="21" stopTime="0.00" timeLoss="1526.33" rerouteNo="90" devices="vehroute_flow_6293583477.12 tripinfo_flow_6293583477.12 routing_flow_6293583477.12 emissions_flow_6293583477.12" vType="car" speedFactor="1.00" vaporized="teleport">
        <emissions CO_abs="270550.381834" CO2_abs="4910380.644874" HC_abs="1345.413435" PMx_abs="113.618036" NOx_abs="2192.633633" fuel_abs="1566278.195503" electricity_abs="0"/>
    </tripinfo>
    <tripinfo id="flow_3695729527.23" depart="279.00" departLane="90042841#0_0" departPos="5.10" departSpeed="0.00" departDelay="231.00" arrival="2289.00" arrivalLane="-828798886_0" arrivalPos="57.99" arrivalSpeed="9.36" duration="2010.00" routeLength="4051.67" waitingTime="1098.00" waitingCount="34" stopTime="0.00" timeLoss="1273.84" rerouteNo="10" devices="vehroute_flow_3695729527.23 tripinfo_flow_3695729527.23 routing_flow_3695729527.23 emissions_flow_3695729527.23" vType="car" speedFactor="1.12" vaporized="">
        <emissions CO_abs="209941.748659" CO2_abs="4293672.157666" HC_abs="1054.179795" PMx_abs="97.334597" NOx_abs="1899.989599" fuel_abs="1369550.400990" electricity_abs="0"/>
    </tripinfo>
    <tripinfo id="flow_10785794283.17" depart="720.00" departLane="24892132#0_0" departPos="5.10" departSpeed="0.00" departDelay="684.00" arrival="2291.00" arrivalLane="232170520#0_0" arrivalPos="62.10" arrivalSpeed="9.88" duration="1571.00" routeLength="7026.95" waitingTime="479.00" waitingCount="21" stopTime="0.00" timeLoss="713.79" rerouteNo="17" devices="vehroute_flow_10785794283.17 tripinfo_flow_10785794283.17 routing_flow_10785794283.17 emissions_flow_10785794283.17" vType="car" speedFactor="1.19" vaporized="">
        <emissions CO_abs="118325.688195" CO2_abs="3301402.568870" HC_abs="610.074070" PMx_abs="62.566449" NOx_abs="1377.258180" fuel_abs="1053033.110961" electricity_abs="0"/>
    </tripinfo>
    <tripinfo id="flow_10152091453.16" depart="402.00" departLane="429356220#0_0" departPos="5.10" departSpeed="0.00" departDelay="368.00" arrival="2324.00" arrivalLane="34474265#5_0" arrivalPos="124.62" arrivalSpeed="0.00" duration="1922.00" routeLength="1478.39" waitingTime="1737.00" waitingCount="8" stopTime="0.00" timeLoss="1773.11" rerouteNo="1" devices="vehroute_flow_10152091453.16 tripinfo_flow_10152091453.16 routing_flow_10152091453.16 emissions_flow_10152091453.16" vType="car" speedFactor="0.90" vaporized="teleport">
        <emissions CO_abs="296557.567214" CO2_abs="5039666.653257" HC_abs="1468.266033" PMx_abs="121.360594" NOx_abs="2279.071340" fuel_abs="1607523.831068" electricity_abs="0"/>
    </tripinfo>
    <tripinfo id="flow_6293583477.37" depart="628.00" departLane="38261112#2_0" departPos="5.10" departSpeed="0.00" departDelay="552.00" arrival="2336.00" arrivalLane="671575656_0" arrivalPos="130.85" arrivalSpeed="0.00" duration="1708.00" routeLength="2352.66" waitingTime="1273.00" waitingCount="12" stopTime="0.00" timeLoss="1358.85" rerouteNo="4" devices="vehroute_flow_6293583477.37 tripinfo_flow_6293583477.37 routing_flow_6293583477.37 emissions_flow_6293583477.37" vType="car" speedFactor="1.02" vaporized="teleport">
        <emissions CO_abs="226502.332139" CO2_abs="4091297.269954" HC_abs="1125.746140" PMx_abs="95.212256" NOx_abs="1828.510317" fuel_abs="1305012.998095" electricity_abs="0"/>
    </tripinfo>
    <tripinfo id="flow_3891079338.19" depart="740.00" departLane="24892132#0_0" departPos="5.10" departSpeed="0.00" departDelay="700.00" arrival="2349.00" arrivalLane="-27774100#4_0" arrivalPos="237.63" arrivalSpeed="0.00" duration="1609.00" routeLength="1951.40" waitingTime="1326.00" waitingCount="14" stopTime="0.00" timeLoss="1395.08" rerouteNo="2" devices="vehroute_flow_3891079338.19 tripinfo_flow_3891079338.19 routing_flow_3891079338.19 emissions_flow_3891079338.19" vType="car" speedFactor="0.95" vaporized="teleport">
        <emissions CO_abs="233749.661541" CO2_abs="4114324.269901" HC_abs="1160.444561" PMx_abs="97.669502" NOx_abs="1852.759330" fuel_abs="1312359.620948" electricity_abs="0"/>
    </tripinfo>
    <tripinfo id="flow_207536847.1" depart="29.00" departLane="41211484#1_0" departPos="5.10" departSpeed="0.00" departDelay="25.00" arrival="2378.00" arrivalLane="542665948#0_0" arrivalPos="56.29" arrivalSpeed="12.26" duration="2349.00" routeLength="5083.85" waitingTime="1226.00" waitingCount="21" stopTime="0.00" timeLoss="1311.05" rerouteNo="12" devices="vehroute_flow_207536847.1 tripinfo_flow_207536847.1 routing_flow_207536847.1 emissions_flow_207536847.1" vType="car" speedFactor="0.88" vaporized="">
        <emissions CO_abs="241825.256512" CO2_abs="4840805.868538" HC_abs="1213.573400" PMx_abs="105.721723" NOx_abs="2118.880414" fuel_abs="1544077.350718" electricity_abs="0"/>
    </tripinfo>
    <tripinfo id="flow_2711712831.31" depart="578.00" departLane="222427536#0_0" departPos="5.10" departSpeed="0.00" departDelay="514.00" arrival="2384.00" arrivalLane="22329473_0" arrivalPos="100.23" arrivalSpeed="10.21" duration="1806.00" routeLength="5025.99" waitingTime="1055.00" waitingCount="16" stopTime="0.00" timeLoss="1183.95" rerouteNo="18" devices="vehroute_flow_2711712831.31 tripinfo_flow_2711712831.31 routing_flow_2711712831.31 emissions_flow_2711712831.31" vType="car" speedFactor="1.23" vaporized="">
        <emissions CO_abs="198725.384562" CO2_abs="4217231.114081" HC_abs="1000.000462" PMx_abs="92.637133" NOx_abs="1843.445994" fuel_abs="1345166.765765" electricity_abs="0"/>
    </tripinfo>
    <tripinfo id="flow_10900394934.8" depart="575.00" departLane="24892132#0_0" departPos="5.10" departSpeed="0.00" departDelay="557.00" arrival="2394.00" arrivalLane="17343012#5_2" arrivalPos="117.81" arrivalSpeed="11.58" duration="1819.00" routeLength="3439.73" waitingTime="989.00" waitingCount="15" stopTime="0.00" timeLoss="1034.65" rerouteNo="6" devices="vehroute_flow_10900394934.8 tripinfo_flow_10900394934.8 routing_flow_10900394934.8 emissions_flow_10900394934.8" vType="car" speedFactor="0.83" vaporized="">
        <emissions CO_abs="185913.404653" CO2_abs="3611754.516434" HC_abs="930.245595" PMx_abs="78.734146" NOx_abs="1582.210229" fuel_abs="1152048.921803" electricity_abs="0"/>
    </tripinfo>
    <tripinfo id="flow_10152065052.26" depart="169.00" departLane="153950038#0_0" departPos="5.10" departSpeed="0.00" departDelay="115.00" arrival="2400.00" arrivalLane="25171322#8_0" arrivalPos="131.79" arrivalSpeed="0.00" duration="2231.00" routeLength="2127.79" waitingTime="1981.00" waitingCount="16" stopTime="0.00" timeLoss="2052.33" rerouteNo="1" devices="vehroute_flow_10152065052.26 tripinfo_flow_10152065052.26 routing_flow_10152065052.26 emissions_flow_10152065052.26" vType="car" speedFactor="0.95" vaporized="teleport">
        <emissions CO_abs="341358.085396" CO2_abs="5951478.753715" HC_abs="1693.132758" PMx_abs="142.736434" NOx_abs="2685.837475" fuel_abs="1898363.485434" electricity_abs="0"/>
    </tripinfo>
    <tripinfo id="flow_10785794283.5" depart="451.00" departLane="24892132#0_0" departPos="5.10" departSpeed="0.00" departDelay="439.00" arrival="2418.00" arrivalLane="232170520#0_0" arrivalPos="62.10" arrivalSpeed="8.99" duration="1967.00" routeLength="4937.84" waitingTime="1223.00" waitingCount="25" stopTime="0.00" timeLoss="1363.36" rerouteNo="8" devices="vehroute_flow_10785794283.5 tripinfo_flow_10785794283.5 routing_flow_10785794283.5 emissions_flow_10785794283.5" vType="car" speedFactor="1.08" vaporized="">
        <emissions CO_abs="229119.306393" CO2_abs="4675072.193106" HC_abs="1148.637341" PMx_abs="103.475739" NOx_abs="2051.158557" fuel_abs="1491208.516938" electricity_abs="0"/>
    </tripinfo>
    <tripinfo id="flow_316775573.13" depart="936.00" departLane="41211484#1_0" departPos="5.10" departSpeed="0.00" departDelay="908.00" arrival="2550.00" arrivalLane="-685270734_0" arrivalPos="41.77" arrivalSpeed="9.67" duration="1614.00" routeLength="3111.94" waitingTime="843.00" waitingCount="11" stopTime="0.00" timeLoss="943.16" rerouteNo="5" devices="vehroute_flow_316775573.13 tripinfo_flow_316775573.13 routing_flow_316775573.13 emissions_flow_316775573.13" vType="car" speedFactor="1.16" vaporized="">